
     Program PHONON v.7.1 starts on 18Jun2023 at 21:59:44 

     This program is part of the open-source Quantum ESPRESSO suite
     for quantum simulation of materials; please cite
         "P. Giannozzi et al., J. Phys.:Condens. Matter 21 395502 (2009);
         "P. Giannozzi et al., J. Phys.:Condens. Matter 29 465901 (2017);
         "P. Giannozzi et al., J. Chem. Phys. 152 154105 (2020);
          URL http://www.quantum-espresso.org", 
     in publications or presentations arising from this work. More details at
     http://www.quantum-espresso.org/quote

     Parallel version (MPI), running on   224 processors

     MPI processes distributed on     4 nodes
     R & G space division:  proc/nbgrp/npool/nimage =     224
     136461 MiB available memory on the printing compute node when the environment starts
 
     Waiting for input...
     Reading input from standard input
      Title line not specified: using 'default'.

     Reading xml data from directory:

     ./scf.save/

     IMPORTANT: XC functional enforced from input :
     Exchange-correlation= PBE
                           (   1   4   3   4   0   0   0)
     Any further DFT definition will be discarded
     Please, verify this is what you really want

 
     Parallelization info
     --------------------
     sticks:   dense  smooth     PW     G-vecs:    dense   smooth      PW
     Min          35      35      9                 1227     1227     175
     Max          36      36     10                 1231     1231     181
     Sum        7953    7953   2199               275277   275277   40073
 
     Using Pencil Decomposition
 
     Reading collected, re-writing distributed wavefunctions


     Dynamical matrices for ( 3, 3, 3)  uniform grid of q-points
     (   8 q-points):
       N         xq(1)         xq(2)         xq(3) 
       1   0.000000000   0.000000000   0.000000000
       2   0.246665871   0.000000000  -0.596235615
       3   0.000000000  -0.244327397   0.596235615
       4   0.246665871  -0.244327397  -0.000000000
       5  -0.246665871  -0.244327397   1.192471230
       6   0.493331741   0.000000000  -0.000000000
       7  -0.000000000   0.000000000   1.192471230
       8  -0.000000000   0.488654794   0.000000000
Eigenvectors exchange needed   53   87

     Calculation of q =    0.0000000   0.0000000   0.0000000

     default                                                                    

     bravais-lattice index     =            0
     lattice parameter (alat)  =      20.4126  a.u.
     unit-cell volume          =    4383.3143 (a.u.)^3
     number of atoms/cell      =           50
     number of atomic types    =            5
     kinetic-energy cut-off    =      60.0000  Ry
     charge density cut-off    =     240.0000  Ry
     convergence threshold     =      1.0E-16
     beta                      =       0.3000
     number of iterations used =            4
     Exchange-correlation= PBE
                           (   1   4   3   4   0   0   0)


     celldm(1)=   20.41261  celldm(2)=    0.00000  celldm(3)=    0.00000
     celldm(4)=    0.00000  celldm(5)=    0.00000  celldm(6)=    0.00000

     crystal axes: (cart. coord. in units of alat)
               a(1) = (  0.6757  0.6821  0.2795 )  
               a(2) = (  0.6757 -0.6821  0.2795 )  
               a(3) = (  0.6757 -0.6821 -0.2795 )  

     reciprocal axes: (cart. coord. in units 2 pi/alat)
               b(1) = (  0.7400  0.7330 -0.0000 )  
               b(2) = (  0.0000 -0.7330  1.7887 )  
               b(3) = (  0.7400  0.0000 -1.7887 )  


     Atoms inside the unit cell: 

     Cartesian axes

     site n.  atom      mass           positions (alat units)
        1     Pb 207.2000   tau(    1) = (    1.50696   -0.68214    0.13977  )
        2     Pb 207.2000   tau(    2) = (    0.52008   -0.00000    0.13977  )
        3     Br  79.9000   tau(    3) = (    0.53826    0.27936    0.13977  )
        4     Br  79.9000   tau(    4) = (    0.53826   -0.27936    0.13977  )
        5     Br  79.9000   tau(    5) = (    1.48878   -0.96151    0.13977  )
        6     Br  79.9000   tau(    6) = (    1.48878   -0.40278    0.13977  )
        7     Br  79.9000   tau(    7) = (    1.20660   -0.68214    0.13977  )
        8     Br  79.9000   tau(    8) = (    0.82043    0.00000    0.13977  )
        9     Br  79.9000   tau(    9) = (    1.09988   -0.00000    0.41930  )
       10     Br  79.9000   tau(   10) = (    0.92715   -0.68214   -0.13977  )
       11     C   12.0100   tau(   11) = (    1.04308   -0.27718    0.13977  )
       12     C   12.0100   tau(   12) = (    1.04308    0.27718    0.13977  )
       13     C   12.0100   tau(   13) = (    0.98396   -0.40496    0.13977  )
       14     C   12.0100   tau(   14) = (    0.98396   -0.95933    0.13977  )
       15     C   12.0100   tau(   15) = (    1.24333   -0.16679    0.13977  )
       16     C   12.0100   tau(   16) = (    0.56765   -0.51536   -0.13977  )
       17     C   12.0100   tau(   17) = (    0.78370   -0.51536    0.13977  )
       18     C   12.0100   tau(   18) = (    1.45938   -0.16679    0.41930  )
       19     H    1.0080   tau(   19) = (    1.00980   -0.45780    0.05695  )
       20     H    1.0080   tau(   20) = (    0.33412   -0.22434   -0.05695  )
       21     H    1.0080   tau(   21) = (    1.01723   -0.22434    0.05695  )
       22     H    1.0080   tau(   22) = (    1.01723    0.22434    0.22258  )
       23     H    1.0080   tau(   23) = (    1.01723   -0.22434    0.22258  )
       24     H    1.0080   tau(   24) = (    1.69291   -0.45780    0.33648  )
       25     H    1.0080   tau(   25) = (    1.00980   -0.45780    0.22258  )
       26     H    1.0080   tau(   26) = (    1.00980   -0.90649    0.05695  )
       27     H    1.0080   tau(   27) = (    1.34337   -0.18225    0.13977  )
       28     H    1.0080   tau(   28) = (    0.66769   -0.49990   -0.13977  )
       29     H    1.0080   tau(   29) = (    0.68366   -0.49990    0.13977  )
       30     H    1.0080   tau(   30) = (    1.35934   -0.18225    0.41930  )
       31     H    1.0080   tau(   31) = (    0.81255   -0.56573    0.22293  )
       32     H    1.0080   tau(   32) = (    0.81255   -0.79856    0.05660  )
       33     H    1.0080   tau(   33) = (    1.21448   -0.11642    0.22293  )
       34     H    1.0080   tau(   34) = (    1.21448    0.11642    0.05660  )
       35     H    1.0080   tau(   35) = (    1.21448   -0.11642    0.05660  )
       36     H    1.0080   tau(   36) = (    1.21448    0.11642    0.22293  )
       37     H    1.0080   tau(   37) = (    0.81255   -0.56573    0.05660  )
       38     H    1.0080   tau(   38) = (    0.81255   -0.79856    0.22293  )
       39     H    1.0080   tau(   39) = (    0.81954   -0.34310    0.06116  )
       40     H    1.0080   tau(   40) = (    0.81954    0.34310    0.21837  )
       41     H    1.0080   tau(   41) = (    1.20749   -0.33904    0.06116  )
       42     H    1.0080   tau(   42) = (    0.53181   -0.34310   -0.06116  )
       43     H    1.0080   tau(   43) = (    1.20749   -0.33904    0.21837  )
       44     H    1.0080   tau(   44) = (    1.20749   -1.02525    0.06116  )
       45     H    1.0080   tau(   45) = (    0.81954   -0.34310    0.21837  )
       46     H    1.0080   tau(   46) = (    1.49522   -0.33904    0.34070  )
       47     N   14.0100   tau(   47) = (    1.18039   -0.28934    0.13977  )
       48     N   14.0100   tau(   48) = (    0.50472   -0.39281   -0.13977  )
       49     N   14.0100   tau(   49) = (    0.84664   -0.39281    0.13977  )
       50     N   14.0100   tau(   50) = (    1.52232   -0.28934    0.41930  )

     Computing dynamical matrix for 
                    q = (   0.0000000   0.0000000   0.0000000 )
 
      9 Sym.Ops. (with q -> -q+G )


     G cutoff = 2533.0777  (   1230 G-vectors)     FFT grid: (108,108,108)
     number of k points=     8

     PseudoPot. # 1 for Pb read from file:
     /home/rkarkee/merced_home_backup/rkarkee/pseudo/Pb.upf
     MD5 check sum: 465799cf2c9ea2062203eb79f5a7a375
     Pseudo is Norm-conserving + core correction, Zval = 14.0
     Generated using ONCVPSP code by D. R. Hamann
     Using radial grid of 1678 points,  6 beta functions with: 
                l(1) =   0
                l(2) =   0
                l(3) =   1
                l(4) =   1
                l(5) =   2
                l(6) =   2

     PseudoPot. # 2 for Br read from file:
     /home/rkarkee/merced_home_backup/rkarkee/pseudo/Br.upf
     MD5 check sum: 68275ccec8d7d9019ef58dac33cdd12b
     Pseudo is Norm-conserving + core correction, Zval =  7.0
     Generated using ONCVPSP code by D. R. Hamann
     Using radial grid of 1098 points,  6 beta functions with: 
                l(1) =   0
                l(2) =   0
                l(3) =   1
                l(4) =   1
                l(5) =   2
                l(6) =   2

     PseudoPot. # 3 for C  read from file:
     /home/rkarkee/merced_home_backup/rkarkee/pseudo/C.upf
     MD5 check sum: 34a24e64c0a39f27c6c36b90a16ac686
     Pseudo is Norm-conserving + core correction, Zval =  4.0
     Generated using ONCVPSP code by D. R. Hamann
     Using radial grid of 1248 points,  4 beta functions with: 
                l(1) =   0
                l(2) =   0
                l(3) =   1
                l(4) =   1

     PseudoPot. # 4 for H  read from file:
     /home/rkarkee/merced_home_backup/rkarkee/pseudo/H.upf
     MD5 check sum: e96aa7e3e4a958db16958554ea960e2a
     Pseudo is Norm-conserving, Zval =  1.0
     Generated using ONCVPSP code by D. R. Hamann
     Using radial grid of 1166 points,  3 beta functions with: 
                l(1) =   0
                l(2) =   0
                l(3) =   1

     PseudoPot. # 5 for N  read from file:
     /home/rkarkee/merced_home_backup/rkarkee/pseudo/N.upf
     MD5 check sum: d34365f73bb0e2ee98afc20ec3e87676
     Pseudo is Norm-conserving + core correction, Zval =  5.0
     Generated using ONCVPSP code by D. R. Hamann
     Using radial grid of 1058 points,  4 beta functions with: 
                l(1) =   0
                l(2) =   0
                l(3) =   1
                l(4) =   1

     Mode symmetry, D_2h (mmm)  point group:


     Electric field:
     Dielectric constant
     Born effective charges in two ways 


     Atomic displacements:
     There are  150 irreducible representations

     Representation     1      1 modes -  To be done

     Representation     2      1 modes -  To be done

     Representation     3      1 modes -  To be done

     Representation     4      1 modes -  To be done

     Representation     5      1 modes -  To be done

     Representation     6      1 modes -  To be done

     Representation     7      1 modes -  To be done

     Representation     8      1 modes -  To be done

     Representation     9      1 modes -  To be done

     Representation    10      1 modes -  To be done

     Representation    11      1 modes -  To be done

     Representation    12      1 modes -  To be done

     Representation    13      1 modes -  To be done

     Representation    14      1 modes -  To be done

     Representation    15      1 modes -  To be done

     Representation    16      1 modes -  To be done

     Representation    17      1 modes -  To be done

     Representation    18      1 modes -  To be done

     Representation    19      1 modes -  To be done

     Representation    20      1 modes -  To be done

     Representation    21      1 modes -  To be done

     Representation    22      1 modes -  To be done

     Representation    23      1 modes -  To be done

     Representation    24      1 modes -  To be done

     Representation    25      1 modes -  To be done

     Representation    26      1 modes -  To be done

     Representation    27      1 modes -  To be done

     Representation    28      1 modes -  To be done

     Representation    29      1 modes -  To be done

     Representation    30      1 modes -  To be done

     Representation    31      1 modes -  To be done

     Representation    32      1 modes -  To be done

     Representation    33      1 modes -  To be done

     Representation    34      1 modes -  To be done

     Representation    35      1 modes -  To be done

     Representation    36      1 modes -  To be done

     Representation    37      1 modes -  To be done

     Representation    38      1 modes -  To be done

     Representation    39      1 modes -  To be done

     Representation    40      1 modes -  To be done

     Representation    41      1 modes -  To be done

     Representation    42      1 modes -  To be done

     Representation    43      1 modes -  To be done

     Representation    44      1 modes -  To be done

     Representation    45      1 modes -  To be done

     Representation    46      1 modes -  To be done

     Representation    47      1 modes -  To be done

     Representation    48      1 modes -  To be done

     Representation    49      1 modes -  To be done

     Representation    50      1 modes -  To be done

     Representation    51      1 modes -  To be done

     Representation    52      1 modes -  To be done

     Representation    53      1 modes -  To be done

     Representation    54      1 modes -  To be done

     Representation    55      1 modes -  To be done

     Representation    56      1 modes -  To be done

     Representation    57      1 modes -  To be done

     Representation    58      1 modes -  To be done

     Representation    59      1 modes -  To be done

     Representation    60      1 modes -  To be done

     Representation    61      1 modes -  To be done

     Representation    62      1 modes -  To be done

     Representation    63      1 modes -  To be done

     Representation    64      1 modes -  To be done

     Representation    65      1 modes -  To be done

     Representation    66      1 modes -  To be done

     Representation    67      1 modes -  To be done

     Representation    68      1 modes -  To be done

     Representation    69      1 modes -  To be done

     Representation    70      1 modes -  To be done

     Representation    71      1 modes -  To be done

     Representation    72      1 modes -  To be done

     Representation    73      1 modes -  To be done

     Representation    74      1 modes -  To be done

     Representation    75      1 modes -  To be done

     Representation    76      1 modes -  To be done

     Representation    77      1 modes -  To be done

     Representation    78      1 modes -  To be done

     Representation    79      1 modes -  To be done

     Representation    80      1 modes -  To be done

     Representation    81      1 modes -  To be done

     Representation    82      1 modes -  To be done

     Representation    83      1 modes -  To be done

     Representation    84      1 modes -  To be done

     Representation    85      1 modes -  To be done

     Representation    86      1 modes -  To be done

     Representation    87      1 modes -  To be done

     Representation    88      1 modes -  To be done

     Representation    89      1 modes -  To be done

     Representation    90      1 modes -  To be done

     Representation    91      1 modes -  To be done

     Representation    92      1 modes -  To be done

     Representation    93      1 modes -  To be done

     Representation    94      1 modes -  To be done

     Representation    95      1 modes -  To be done

     Representation    96      1 modes -  To be done

     Representation    97      1 modes -  To be done

     Representation    98      1 modes -  To be done

     Representation    99      1 modes -  To be done

     Representation   100      1 modes -  To be done

     Representation   101      1 modes -  To be done

     Representation   102      1 modes -  To be done

     Representation   103      1 modes -  To be done

     Representation   104      1 modes -  To be done

     Representation   105      1 modes -  To be done

     Representation   106      1 modes -  To be done

     Representation   107      1 modes -  To be done

     Representation   108      1 modes -  To be done

     Representation   109      1 modes -  To be done

     Representation   110      1 modes -  To be done

     Representation   111      1 modes -  To be done

     Representation   112      1 modes -  To be done

     Representation   113      1 modes -  To be done

     Representation   114      1 modes -  To be done

     Representation   115      1 modes -  To be done

     Representation   116      1 modes -  To be done

     Representation   117      1 modes -  To be done

     Representation   118      1 modes -  To be done

     Representation   119      1 modes -  To be done

     Representation   120      1 modes -  To be done

     Representation   121      1 modes -  To be done

     Representation   122      1 modes -  To be done

     Representation   123      1 modes -  To be done

     Representation   124      1 modes -  To be done

     Representation   125      1 modes -  To be done

     Representation   126      1 modes -  To be done

     Representation   127      1 modes -  To be done

     Representation   128      1 modes -  To be done

     Representation   129      1 modes -  To be done

     Representation   130      1 modes -  To be done

     Representation   131      1 modes -  To be done

     Representation   132      1 modes -  To be done

     Representation   133      1 modes -  To be done

     Representation   134      1 modes -  To be done

     Representation   135      1 modes -  To be done

     Representation   136      1 modes -  To be done

     Representation   137      1 modes -  To be done

     Representation   138      1 modes -  To be done

     Representation   139      1 modes -  To be done

     Representation   140      1 modes -  To be done

     Representation   141      1 modes -  To be done

     Representation   142      1 modes -  To be done

     Representation   143      1 modes -  To be done

     Representation   144      1 modes -  To be done

     Representation   145      1 modes -  To be done

     Representation   146      1 modes -  To be done

     Representation   147      1 modes -  To be done

     Representation   148      1 modes -  To be done

     Representation   149      1 modes -  To be done

     Representation   150      1 modes -  To be done



     Alpha used in Ewald sum =   2.0000
     PHONON       :      7.82s CPU     12.19s WALL


     Electric Fields Calculation

      iter #   1 total cpu time :    98.4 secs   av.it.:   8.0
      thresh= 1.000E-02 alpha_mix =  0.300 |ddv_scf|^2 =  2.640E-08

      iter #   2 total cpu time :   136.0 secs   av.it.:  16.1
      thresh= 1.625E-05 alpha_mix =  0.300 |ddv_scf|^2 =  9.666E-10

      iter #   3 total cpu time :   173.9 secs   av.it.:  16.6
      thresh= 3.109E-06 alpha_mix =  0.300 |ddv_scf|^2 =  2.966E-10

      iter #   4 total cpu time :   212.8 secs   av.it.:  17.0
      thresh= 1.722E-06 alpha_mix =  0.300 |ddv_scf|^2 =  5.075E-11

      iter #   5 total cpu time :   251.0 secs   av.it.:  16.9
      thresh= 7.124E-07 alpha_mix =  0.300 |ddv_scf|^2 =  4.702E-12

      iter #   6 total cpu time :   290.8 secs   av.it.:  17.0
      thresh= 2.168E-07 alpha_mix =  0.300 |ddv_scf|^2 =  2.654E-13

      iter #   7 total cpu time :   330.0 secs   av.it.:  17.0
      thresh= 5.152E-08 alpha_mix =  0.300 |ddv_scf|^2 =  6.055E-14

      iter #   8 total cpu time :   370.0 secs   av.it.:  17.9
      thresh= 2.461E-08 alpha_mix =  0.300 |ddv_scf|^2 =  4.003E-15

      iter #   9 total cpu time :   411.1 secs   av.it.:  17.8
      thresh= 6.327E-09 alpha_mix =  0.300 |ddv_scf|^2 =  5.546E-16

      iter #  10 total cpu time :   451.1 secs   av.it.:  17.4
      thresh= 2.355E-09 alpha_mix =  0.300 |ddv_scf|^2 =  8.414E-17

     End of electric fields calculation

          Dielectric constant in cartesian axis 

          (       3.219380910      -0.000000000       0.000000000 )
          (      -0.000000000       3.223063263       0.000000000 )
          (       0.000000000       0.000000000       3.352123982 )

          Effective charges (d Force / dE) in cartesian axis without acoustic sum rule applied (asr)

           atom      1   Pb Mean Z*:        3.14527
      Ex  (        2.79251        0.00000        0.00000 )
      Ey  (        0.00000        2.89856        0.00000 )
      Ez  (        0.00000        0.00000        3.74476 )
           atom      2   Pb Mean Z*:        3.14527
      Ex  (        2.79251        0.00000       -0.00000 )
      Ey  (        0.00000        2.89856       -0.00000 )
      Ez  (       -0.00000       -0.00000        3.74476 )
           atom      3   Br Mean Z*:       -1.30109
      Ex  (       -0.70000       -0.05504        0.00000 )
      Ey  (       -0.06911       -1.79237        0.00000 )
      Ez  (       -0.00000        0.00000       -1.41090 )
           atom      4   Br Mean Z*:       -1.30109
      Ex  (       -0.70000        0.05504        0.00000 )
      Ey  (        0.06911       -1.79237       -0.00000 )
      Ez  (        0.00000       -0.00000       -1.41090 )
           atom      5   Br Mean Z*:       -1.30109
      Ex  (       -0.70000       -0.05504        0.00000 )
      Ey  (       -0.06911       -1.79237        0.00000 )
      Ez  (        0.00000        0.00000       -1.41090 )
           atom      6   Br Mean Z*:       -1.30109
      Ex  (       -0.70000        0.05504       -0.00000 )
      Ey  (        0.06911       -1.79237        0.00000 )
      Ez  (        0.00000        0.00000       -1.41090 )
           atom      7   Br Mean Z*:       -1.39731
      Ex  (       -1.26642        0.00000        0.00000 )
      Ey  (        0.00000       -0.54486       -0.00000 )
      Ez  (        0.00000        0.00000       -2.38066 )
           atom      8   Br Mean Z*:       -1.39731
      Ex  (       -1.26642       -0.00000       -0.00000 )
      Ey  (        0.00000       -0.54486        0.00000 )
      Ez  (       -0.00000        0.00000       -2.38066 )
           atom      9   Br Mean Z*:       -1.38333
      Ex  (       -2.20577       -0.00000        0.00000 )
      Ey  (       -0.00000       -0.94522        0.00000 )
      Ez  (       -0.00000        0.00000       -0.99900 )
           atom     10   Br Mean Z*:       -1.38333
      Ex  (       -2.20577       -0.00000        0.00000 )
      Ey  (       -0.00000       -0.94522        0.00000 )
      Ez  (       -0.00000        0.00000       -0.99900 )
           atom     11   C  Mean Z*:        0.24172
      Ex  (        0.45994       -0.08685        0.00000 )
      Ey  (       -0.09330        0.11145        0.00000 )
      Ez  (        0.00000       -0.00000        0.15378 )
           atom     12   C  Mean Z*:        0.24172
      Ex  (        0.45994        0.08685        0.00000 )
      Ey  (        0.09330        0.11145        0.00000 )
      Ez  (       -0.00000        0.00000        0.15378 )
           atom     13   C  Mean Z*:        0.24172
      Ex  (        0.45994       -0.08685        0.00000 )
      Ey  (       -0.09330        0.11145        0.00000 )
      Ez  (        0.00000        0.00000        0.15378 )
           atom     14   C  Mean Z*:        0.24172
      Ex  (        0.45994        0.08685        0.00000 )
      Ey  (        0.09330        0.11145       -0.00000 )
      Ez  (       -0.00000        0.00000        0.15378 )
           atom     15   C  Mean Z*:        0.12446
      Ex  (        0.09952        0.21602       -0.00000 )
      Ey  (        0.24513        0.34889       -0.00000 )
      Ez  (       -0.00000        0.00000       -0.07503 )
           atom     16   C  Mean Z*:        0.12446
      Ex  (        0.09952       -0.21602        0.00000 )
      Ey  (       -0.24513        0.34889       -0.00000 )
      Ez  (       -0.00000        0.00000       -0.07503 )
           atom     17   C  Mean Z*:        0.12446
      Ex  (        0.09952        0.21602        0.00000 )
      Ey  (        0.24513        0.34889       -0.00000 )
      Ez  (        0.00000       -0.00000       -0.07503 )
           atom     18   C  Mean Z*:        0.12446
      Ex  (        0.09952       -0.21602       -0.00000 )
      Ey  (       -0.24513        0.34889       -0.00000 )
      Ez  (       -0.00000        0.00000       -0.07503 )
           atom     19   H  Mean Z*:        0.09447
      Ex  (        0.07974       -0.02378        0.02342 )
      Ey  (       -0.04042        0.10375       -0.04672 )
      Ez  (       -0.02110       -0.03961        0.09992 )
           atom     20   H  Mean Z*:        0.09447
      Ex  (        0.07974        0.02378       -0.02342 )
      Ey  (        0.04042        0.10375       -0.04672 )
      Ez  (        0.02110       -0.03961        0.09992 )
           atom     21   H  Mean Z*:        0.09447
      Ex  (        0.07974       -0.02378       -0.02342 )
      Ey  (       -0.04042        0.10375        0.04672 )
      Ez  (        0.02110        0.03961        0.09992 )
           atom     22   H  Mean Z*:        0.09447
      Ex  (        0.07974        0.02378        0.02342 )
      Ey  (        0.04042        0.10375        0.04672 )
      Ez  (       -0.02110        0.03961        0.09992 )
           atom     23   H  Mean Z*:        0.09447
      Ex  (        0.07974       -0.02378        0.02342 )
      Ey  (       -0.04042        0.10375       -0.04672 )
      Ez  (       -0.02110       -0.03961        0.09992 )
           atom     24   H  Mean Z*:        0.09447
      Ex  (        0.07974        0.02378       -0.02342 )
      Ey  (        0.04042        0.10375       -0.04672 )
      Ez  (        0.02110       -0.03961        0.09992 )
           atom     25   H  Mean Z*:        0.09447
      Ex  (        0.07974       -0.02378       -0.02342 )
      Ey  (       -0.04042        0.10375        0.04672 )
      Ez  (        0.02110        0.03961        0.09992 )
           atom     26   H  Mean Z*:        0.09447
      Ex  (        0.07974        0.02378        0.02342 )
      Ey  (        0.04042        0.10375        0.04672 )
      Ez  (       -0.02110        0.03961        0.09992 )
           atom     27   H  Mean Z*:        0.10071
      Ex  (        0.03781        0.01765       -0.00000 )
      Ey  (       -0.04483        0.15973        0.00000 )
      Ez  (        0.00000       -0.00000        0.10458 )
           atom     28   H  Mean Z*:        0.10071
      Ex  (        0.03781       -0.01765       -0.00000 )
      Ey  (        0.04483        0.15973       -0.00000 )
      Ez  (       -0.00000       -0.00000        0.10458 )
           atom     29   H  Mean Z*:        0.10071
      Ex  (        0.03781        0.01765       -0.00000 )
      Ey  (       -0.04483        0.15973        0.00000 )
      Ez  (       -0.00000       -0.00000        0.10458 )
           atom     30   H  Mean Z*:        0.10071
      Ex  (        0.03781       -0.01765       -0.00000 )
      Ey  (        0.04483        0.15973       -0.00000 )
      Ez  (       -0.00000        0.00000        0.10458 )
           atom     31   H  Mean Z*:        0.13935
      Ex  (        0.12941       -0.11672        0.10353 )
      Ey  (       -0.05072        0.13220       -0.03569 )
      Ez  (        0.03760       -0.05866        0.15643 )
           atom     32   H  Mean Z*:        0.13935
      Ex  (        0.12941        0.11672       -0.10353 )
      Ey  (        0.05072        0.13220       -0.03569 )
      Ez  (       -0.03760       -0.05866        0.15643 )
           atom     33   H  Mean Z*:        0.13935
      Ex  (        0.12941       -0.11672       -0.10353 )
      Ey  (       -0.05072        0.13220        0.03569 )
      Ez  (       -0.03760        0.05866        0.15643 )
           atom     34   H  Mean Z*:        0.13935
      Ex  (        0.12941        0.11672        0.10353 )
      Ey  (        0.05072        0.13220        0.03569 )
      Ez  (        0.03760        0.05866        0.15643 )
           atom     35   H  Mean Z*:        0.13935
      Ex  (        0.12941       -0.11672        0.10353 )
      Ey  (       -0.05072        0.13220       -0.03569 )
      Ez  (        0.03760       -0.05866        0.15643 )
           atom     36   H  Mean Z*:        0.13935
      Ex  (        0.12941        0.11672       -0.10353 )
      Ey  (        0.05072        0.13220       -0.03569 )
      Ez  (       -0.03760       -0.05866        0.15643 )
           atom     37   H  Mean Z*:        0.13935
      Ex  (        0.12941       -0.11672       -0.10353 )
      Ey  (       -0.05072        0.13220        0.03569 )
      Ez  (       -0.03760        0.05866        0.15643 )
           atom     38   H  Mean Z*:        0.13935
      Ex  (        0.12941        0.11672        0.10353 )
      Ey  (        0.05072        0.13220        0.03569 )
      Ez  (        0.03760        0.05866        0.15643 )
           atom     39   H  Mean Z*:        0.54991
      Ex  (        0.24545       -0.11446        0.13291 )
      Ey  (       -0.13264        0.28715       -0.49820 )
      Ez  (        0.11775       -0.39225        1.11714 )
           atom     40   H  Mean Z*:        0.54991
      Ex  (        0.24545        0.11446       -0.13291 )
      Ey  (        0.13264        0.28715       -0.49820 )
      Ez  (       -0.11775       -0.39225        1.11714 )
           atom     41   H  Mean Z*:        0.54991
      Ex  (        0.24545       -0.11446       -0.13291 )
      Ey  (       -0.13264        0.28715        0.49820 )
      Ez  (       -0.11775        0.39225        1.11714 )
           atom     42   H  Mean Z*:        0.54991
      Ex  (        0.24545        0.11446        0.13291 )
      Ey  (        0.13264        0.28715        0.49820 )
      Ez  (        0.11775        0.39225        1.11714 )
           atom     43   H  Mean Z*:        0.54991
      Ex  (        0.24545       -0.11446        0.13291 )
      Ey  (       -0.13264        0.28715       -0.49820 )
      Ez  (        0.11775       -0.39225        1.11714 )
           atom     44   H  Mean Z*:        0.54991
      Ex  (        0.24545        0.11446       -0.13291 )
      Ey  (        0.13264        0.28715       -0.49820 )
      Ez  (       -0.11775       -0.39225        1.11714 )
           atom     45   H  Mean Z*:        0.54991
      Ex  (        0.24545       -0.11446       -0.13291 )
      Ey  (       -0.13264        0.28715        0.49820 )
      Ez  (       -0.11775        0.39225        1.11714 )
           atom     46   H  Mean Z*:        0.54991
      Ex  (        0.24545        0.11446        0.13291 )
      Ey  (        0.13264        0.28715        0.49820 )
      Ez  (        0.11775        0.39225        1.11714 )
           atom     47   N  Mean Z*:       -0.74244
      Ex  (       -0.46573        0.09001        0.00000 )
      Ey  (        0.08171       -0.57744        0.00000 )
      Ez  (       -0.00000        0.00000       -1.18415 )
           atom     48   N  Mean Z*:       -0.74244
      Ex  (       -0.46573       -0.09001        0.00000 )
      Ey  (       -0.08171       -0.57744        0.00000 )
      Ez  (       -0.00000        0.00000       -1.18415 )
           atom     49   N  Mean Z*:       -0.74244
      Ex  (       -0.46573        0.09001       -0.00000 )
      Ey  (        0.08171       -0.57744        0.00000 )
      Ez  (       -0.00000        0.00000       -1.18415 )
           atom     50   N  Mean Z*:       -0.74244
      Ex  (       -0.46573       -0.09001        0.00000 )
      Ey  (       -0.08171       -0.57744       -0.00000 )
      Ez  (        0.00000       -0.00000       -1.18415 )

          Effective charges Sum: Mean:        0.69258
              0.00371        0.00000       -0.00000
              0.00000        0.00283        0.00000
              0.00000        0.00000        2.07120

          Effective charges (d Force / dE) in cartesian axis with asr applied: 
           atom      1   Pb Mean Z*:        3.13142
      E*x (        2.79243        0.00000        0.00000 )
      E*y (        0.00000        2.89850        0.00000 )
      E*z (        0.00000        0.00000        3.70333 )
           atom      2   Pb Mean Z*:        3.13142
      E*x (        2.79243        0.00000       -0.00000 )
      E*y (        0.00000        2.89850       -0.00000 )
      E*z (       -0.00000       -0.00000        3.70333 )
           atom      3   Br Mean Z*:       -1.31494
      E*x (       -0.70007       -0.05504        0.00000 )
      E*y (       -0.06911       -1.79242        0.00000 )
      E*z (       -0.00000        0.00000       -1.45232 )
           atom      4   Br Mean Z*:       -1.31494
      E*x (       -0.70007        0.05504        0.00000 )
      E*y (        0.06911       -1.79242       -0.00000 )
      E*z (        0.00000       -0.00000       -1.45232 )
           atom      5   Br Mean Z*:       -1.31494
      E*x (       -0.70007       -0.05504        0.00000 )
      E*y (       -0.06911       -1.79242        0.00000 )
      E*z (        0.00000        0.00000       -1.45232 )
           atom      6   Br Mean Z*:       -1.31494
      E*x (       -0.70007        0.05504       -0.00000 )
      E*y (        0.06911       -1.79242        0.00000 )
      E*z (        0.00000        0.00000       -1.45232 )
           atom      7   Br Mean Z*:       -1.41116
      E*x (       -1.26649        0.00000        0.00000 )
      E*y (       -0.00000       -0.54491       -0.00000 )
      E*z (        0.00000        0.00000       -2.42208 )
           atom      8   Br Mean Z*:       -1.41116
      E*x (       -1.26649       -0.00000       -0.00000 )
      E*y (        0.00000       -0.54491        0.00000 )
      E*z (       -0.00000        0.00000       -2.42208 )
           atom      9   Br Mean Z*:       -1.39718
      E*x (       -2.20584       -0.00000        0.00000 )
      E*y (       -0.00000       -0.94528        0.00000 )
      E*z (        0.00000        0.00000       -1.04043 )
           atom     10   Br Mean Z*:       -1.39718
      E*x (       -2.20584       -0.00000        0.00000 )
      E*y (       -0.00000       -0.94528        0.00000 )
      E*z (        0.00000        0.00000       -1.04043 )
           atom     11   C  Mean Z*:        0.22787
      E*x (        0.45986       -0.08685       -0.00000 )
      E*y (       -0.09330        0.11140        0.00000 )
      E*z (        0.00000       -0.00000        0.11236 )
           atom     12   C  Mean Z*:        0.22787
      E*x (        0.45986        0.08685        0.00000 )
      E*y (        0.09330        0.11140        0.00000 )
      E*z (       -0.00000        0.00000        0.11236 )
           atom     13   C  Mean Z*:        0.22787
      E*x (        0.45986       -0.08685        0.00000 )
      E*y (       -0.09330        0.11140        0.00000 )
      E*z (        0.00000        0.00000        0.11236 )
           atom     14   C  Mean Z*:        0.22787
      E*x (        0.45986        0.08685        0.00000 )
      E*y (        0.09330        0.11140       -0.00000 )
      E*z (       -0.00000        0.00000        0.11236 )
           atom     15   C  Mean Z*:        0.11061
      E*x (        0.09945        0.21602       -0.00000 )
      E*y (        0.24513        0.34883       -0.00000 )
      E*z (       -0.00000       -0.00000       -0.11645 )
           atom     16   C  Mean Z*:        0.11061
      E*x (        0.09945       -0.21602        0.00000 )
      E*y (       -0.24513        0.34883       -0.00000 )
      E*z (       -0.00000        0.00000       -0.11645 )
           atom     17   C  Mean Z*:        0.11061
      E*x (        0.09945        0.21602        0.00000 )
      E*y (        0.24513        0.34883       -0.00000 )
      E*z (        0.00000       -0.00000       -0.11645 )
           atom     18   C  Mean Z*:        0.11061
      E*x (        0.09945       -0.21602       -0.00000 )
      E*y (       -0.24513        0.34883       -0.00000 )
      E*z (       -0.00000        0.00000       -0.11645 )
           atom     19   H  Mean Z*:        0.08062
      E*x (        0.07967       -0.02378        0.02342 )
      E*y (       -0.04042        0.10369       -0.04672 )
      E*z (       -0.02110       -0.03961        0.05850 )
           atom     20   H  Mean Z*:        0.08062
      E*x (        0.07967        0.02378       -0.02342 )
      E*y (        0.04042        0.10369       -0.04672 )
      E*z (        0.02110       -0.03961        0.05850 )
           atom     21   H  Mean Z*:        0.08062
      E*x (        0.07967       -0.02378       -0.02342 )
      E*y (       -0.04042        0.10369        0.04672 )
      E*z (        0.02110        0.03961        0.05850 )
           atom     22   H  Mean Z*:        0.08062
      E*x (        0.07967        0.02378        0.02342 )
      E*y (        0.04042        0.10369        0.04672 )
      E*z (       -0.02110        0.03961        0.05850 )
           atom     23   H  Mean Z*:        0.08062
      E*x (        0.07967       -0.02378        0.02342 )
      E*y (       -0.04042        0.10369       -0.04672 )
      E*z (       -0.02110       -0.03961        0.05850 )
           atom     24   H  Mean Z*:        0.08062
      E*x (        0.07967        0.02378       -0.02342 )
      E*y (        0.04042        0.10369       -0.04672 )
      E*z (        0.02110       -0.03961        0.05850 )
           atom     25   H  Mean Z*:        0.08062
      E*x (        0.07967       -0.02378       -0.02342 )
      E*y (       -0.04042        0.10369        0.04672 )
      E*z (        0.02110        0.03961        0.05850 )
           atom     26   H  Mean Z*:        0.08062
      E*x (        0.07967        0.02378        0.02342 )
      E*y (        0.04042        0.10369        0.04672 )
      E*z (       -0.02110        0.03961        0.05850 )
           atom     27   H  Mean Z*:        0.08686
      E*x (        0.03774        0.01765       -0.00000 )
      E*y (       -0.04483        0.15968       -0.00000 )
      E*z (        0.00000       -0.00000        0.06315 )
           atom     28   H  Mean Z*:        0.08686
      E*x (        0.03774       -0.01765       -0.00000 )
      E*y (        0.04483        0.15968       -0.00000 )
      E*z (       -0.00000       -0.00000        0.06315 )
           atom     29   H  Mean Z*:        0.08686
      E*x (        0.03774        0.01765       -0.00000 )
      E*y (       -0.04483        0.15968       -0.00000 )
      E*z (        0.00000       -0.00000        0.06315 )
           atom     30   H  Mean Z*:        0.08686
      E*x (        0.03774       -0.01765       -0.00000 )
      E*y (        0.04483        0.15968       -0.00000 )
      E*z (        0.00000       -0.00000        0.06315 )
           atom     31   H  Mean Z*:        0.12550
      E*x (        0.12934       -0.11672        0.10353 )
      E*y (       -0.05072        0.13214       -0.03569 )
      E*z (        0.03760       -0.05866        0.11500 )
           atom     32   H  Mean Z*:        0.12550
      E*x (        0.12934        0.11672       -0.10353 )
      E*y (        0.05072        0.13214       -0.03569 )
      E*z (       -0.03760       -0.05866        0.11500 )
           atom     33   H  Mean Z*:        0.12550
      E*x (        0.12934       -0.11672       -0.10353 )
      E*y (       -0.05072        0.13214        0.03569 )
      E*z (       -0.03760        0.05866        0.11500 )
           atom     34   H  Mean Z*:        0.12550
      E*x (        0.12934        0.11672        0.10353 )
      E*y (        0.05072        0.13214        0.03569 )
      E*z (        0.03760        0.05866        0.11500 )
           atom     35   H  Mean Z*:        0.12550
      E*x (        0.12934       -0.11672        0.10353 )
      E*y (       -0.05072        0.13214       -0.03569 )
      E*z (        0.03760       -0.05866        0.11500 )
           atom     36   H  Mean Z*:        0.12550
      E*x (        0.12934        0.11672       -0.10353 )
      E*y (        0.05072        0.13214       -0.03569 )
      E*z (       -0.03760       -0.05866        0.11500 )
           atom     37   H  Mean Z*:        0.12550
      E*x (        0.12934       -0.11672       -0.10353 )
      E*y (       -0.05072        0.13214        0.03569 )
      E*z (       -0.03760        0.05866        0.11500 )
           atom     38   H  Mean Z*:        0.12550
      E*x (        0.12934        0.11672        0.10353 )
      E*y (        0.05072        0.13214        0.03569 )
      E*z (        0.03760        0.05866        0.11500 )
           atom     39   H  Mean Z*:        0.53606
      E*x (        0.24538       -0.11446        0.13291 )
      E*y (       -0.13264        0.28709       -0.49820 )
      E*z (        0.11775       -0.39225        1.07571 )
           atom     40   H  Mean Z*:        0.53606
      E*x (        0.24538        0.11446       -0.13291 )
      E*y (        0.13264        0.28709       -0.49820 )
      E*z (       -0.11775       -0.39225        1.07571 )
           atom     41   H  Mean Z*:        0.53606
      E*x (        0.24538       -0.11446       -0.13291 )
      E*y (       -0.13264        0.28709        0.49820 )
      E*z (       -0.11775        0.39225        1.07571 )
           atom     42   H  Mean Z*:        0.53606
      E*x (        0.24538        0.11446        0.13291 )
      E*y (        0.13264        0.28709        0.49820 )
      E*z (        0.11775        0.39225        1.07571 )
           atom     43   H  Mean Z*:        0.53606
      E*x (        0.24538       -0.11446        0.13291 )
      E*y (       -0.13264        0.28709       -0.49820 )
      E*z (        0.11775       -0.39225        1.07571 )
           atom     44   H  Mean Z*:        0.53606
      E*x (        0.24538        0.11446       -0.13291 )
      E*y (        0.13264        0.28709       -0.49820 )
      E*z (       -0.11775       -0.39225        1.07571 )
           atom     45   H  Mean Z*:        0.53606
      E*x (        0.24538       -0.11446       -0.13291 )
      E*y (       -0.13264        0.28709        0.49820 )
      E*z (       -0.11775        0.39225        1.07571 )
           atom     46   H  Mean Z*:        0.53606
      E*x (        0.24538        0.11446        0.13291 )
      E*y (        0.13264        0.28709        0.49820 )
      E*z (        0.11775        0.39225        1.07571 )
           atom     47   N  Mean Z*:       -0.75629
      E*x (       -0.46580        0.09001        0.00000 )
      E*y (        0.08171       -0.57750        0.00000 )
      E*z (       -0.00000        0.00000       -1.22557 )
           atom     48   N  Mean Z*:       -0.75629
      E*x (       -0.46580       -0.09001        0.00000 )
      E*y (       -0.08171       -0.57750        0.00000 )
      E*z (       -0.00000        0.00000       -1.22557 )
           atom     49   N  Mean Z*:       -0.75629
      E*x (       -0.46580        0.09001       -0.00000 )
      E*y (        0.08171       -0.57750        0.00000 )
      E*z (       -0.00000        0.00000       -1.22557 )
           atom     50   N  Mean Z*:       -0.75629
      E*x (       -0.46580       -0.09001        0.00000 )
      E*y (       -0.08171       -0.57750       -0.00000 )
      E*z (        0.00000       -0.00000       -1.22557 )


     Representation #   1 mode #   1

     Self-consistent Calculation

      iter #   1 total cpu time :   575.6 secs   av.it.:   3.0
      thresh= 1.000E-02 alpha_mix =  0.300 |ddv_scf|^2 =  2.863E-10

      iter #   2 total cpu time :   588.2 secs   av.it.:  14.8
      thresh= 1.692E-06 alpha_mix =  0.300 |ddv_scf|^2 =  2.390E-11

      iter #   3 total cpu time :   600.4 secs   av.it.:  15.2
      thresh= 4.889E-07 alpha_mix =  0.300 |ddv_scf|^2 =  2.322E-12

      iter #   4 total cpu time :   612.2 secs   av.it.:  14.8
      thresh= 1.524E-07 alpha_mix =  0.300 |ddv_scf|^2 =  4.239E-13

      iter #   5 total cpu time :   625.0 secs   av.it.:  15.2
      thresh= 6.511E-08 alpha_mix =  0.300 |ddv_scf|^2 =  4.712E-14

      iter #   6 total cpu time :   637.6 secs   av.it.:  15.4
      thresh= 2.171E-08 alpha_mix =  0.300 |ddv_scf|^2 =  3.750E-15

      iter #   7 total cpu time :   649.6 secs   av.it.:  15.4
      thresh= 6.124E-09 alpha_mix =  0.300 |ddv_scf|^2 =  8.350E-16

      iter #   8 total cpu time :   662.6 secs   av.it.:  15.5
      thresh= 2.890E-09 alpha_mix =  0.300 |ddv_scf|^2 =  1.018E-16

      iter #   9 total cpu time :   675.3 secs   av.it.:  15.2
      thresh= 1.009E-09 alpha_mix =  0.300 |ddv_scf|^2 =  1.319E-17

     End of self-consistent calculation

     Convergence has been achieved 


     Representation #   2 mode #   2

     Self-consistent Calculation

      iter #   1 total cpu time :   679.7 secs   av.it.:   2.0
      thresh= 1.000E-02 alpha_mix =  0.300 |ddv_scf|^2 =  2.825E-10

      iter #   2 total cpu time :   695.1 secs   av.it.:  13.8
      thresh= 1.681E-06 alpha_mix =  0.300 |ddv_scf|^2 =  5.157E-11

      iter #   3 total cpu time :   707.9 secs   av.it.:  14.6
      thresh= 7.181E-07 alpha_mix =  0.300 |ddv_scf|^2 =  3.424E-12

      iter #   4 total cpu time :   719.3 secs   av.it.:  14.5
      thresh= 1.850E-07 alpha_mix =  0.300 |ddv_scf|^2 =  8.419E-13

      iter #   5 total cpu time :   731.3 secs   av.it.:  15.1
      thresh= 9.176E-08 alpha_mix =  0.300 |ddv_scf|^2 =  1.720E-13

      iter #   6 total cpu time :   744.1 secs   av.it.:  14.6
      thresh= 4.148E-08 alpha_mix =  0.300 |ddv_scf|^2 =  1.629E-14

      iter #   7 total cpu time :   755.6 secs   av.it.:  14.8
      thresh= 1.276E-08 alpha_mix =  0.300 |ddv_scf|^2 =  1.434E-15

      iter #   8 total cpu time :   767.3 secs   av.it.:  14.5
      thresh= 3.787E-09 alpha_mix =  0.300 |ddv_scf|^2 =  3.799E-16

      iter #   9 total cpu time :   780.3 secs   av.it.:  15.4
      thresh= 1.949E-09 alpha_mix =  0.300 |ddv_scf|^2 =  2.502E-17

     End of self-consistent calculation

     Convergence has been achieved 


     Representation #   3 mode #   3

     Self-consistent Calculation

      iter #   1 total cpu time :   786.1 secs   av.it.:   4.5
      thresh= 1.000E-02 alpha_mix =  0.300 |ddv_scf|^2 =  3.612E-08

      iter #   2 total cpu time :   796.9 secs   av.it.:  13.4
      thresh= 1.901E-05 alpha_mix =  0.300 |ddv_scf|^2 =  4.985E-10

      iter #   3 total cpu time :   809.4 secs   av.it.:  14.4
      thresh= 2.233E-06 alpha_mix =  0.300 |ddv_scf|^2 =  6.202E-11

      iter #   4 total cpu time :   821.2 secs   av.it.:  14.6
      thresh= 7.875E-07 alpha_mix =  0.300 |ddv_scf|^2 =  1.403E-11

      iter #   5 total cpu time :   832.8 secs   av.it.:  14.6
      thresh= 3.745E-07 alpha_mix =  0.300 |ddv_scf|^2 =  2.040E-12

      iter #   6 total cpu time :   846.1 secs   av.it.:  15.2
      thresh= 1.428E-07 alpha_mix =  0.300 |ddv_scf|^2 =  9.545E-14

      iter #   7 total cpu time :   858.0 secs   av.it.:  14.8
      thresh= 3.089E-08 alpha_mix =  0.300 |ddv_scf|^2 =  2.454E-14

      iter #   8 total cpu time :   869.8 secs   av.it.:  15.4
      thresh= 1.566E-08 alpha_mix =  0.300 |ddv_scf|^2 =  2.750E-15

      iter #   9 total cpu time :   883.3 secs   av.it.:  15.2
      thresh= 5.244E-09 alpha_mix =  0.300 |ddv_scf|^2 =  1.947E-16

      iter #  10 total cpu time :   895.2 secs   av.it.:  15.4
      thresh= 1.395E-09 alpha_mix =  0.300 |ddv_scf|^2 =  1.979E-17

     End of self-consistent calculation

     Convergence has been achieved 


     Representation #   4 mode #   4

     Self-consistent Calculation

      iter #   1 total cpu time :   901.5 secs   av.it.:   5.0
      thresh= 1.000E-02 alpha_mix =  0.300 |ddv_scf|^2 =  1.511E-08

      iter #   2 total cpu time :   913.6 secs   av.it.:  14.2
      thresh= 1.229E-05 alpha_mix =  0.300 |ddv_scf|^2 =  9.339E-10

      iter #   3 total cpu time :   926.0 secs   av.it.:  14.9
      thresh= 3.056E-06 alpha_mix =  0.300 |ddv_scf|^2 =  1.347E-10

      iter #   4 total cpu time :   937.5 secs   av.it.:  14.8
      thresh= 1.161E-06 alpha_mix =  0.300 |ddv_scf|^2 =  8.701E-12

      iter #   5 total cpu time :   950.4 secs   av.it.:  15.4
      thresh= 2.950E-07 alpha_mix =  0.300 |ddv_scf|^2 =  7.086E-13

      iter #   6 total cpu time :   963.0 secs   av.it.:  15.4
      thresh= 8.418E-08 alpha_mix =  0.300 |ddv_scf|^2 =  5.732E-14

      iter #   7 total cpu time :   974.6 secs   av.it.:  14.9
      thresh= 2.394E-08 alpha_mix =  0.300 |ddv_scf|^2 =  1.443E-14

      iter #   8 total cpu time :   987.5 secs   av.it.:  15.5
      thresh= 1.201E-08 alpha_mix =  0.300 |ddv_scf|^2 =  7.197E-16

      iter #   9 total cpu time :  1000.2 secs   av.it.:  15.4
      thresh= 2.683E-09 alpha_mix =  0.300 |ddv_scf|^2 =  1.108E-16

      iter #  10 total cpu time :  1012.7 secs   av.it.:  15.2
      thresh= 1.052E-09 alpha_mix =  0.300 |ddv_scf|^2 =  1.946E-17

     End of self-consistent calculation

     Convergence has been achieved 


     Representation #   5 mode #   5

     Self-consistent Calculation

      iter #   1 total cpu time :  1018.3 secs   av.it.:   4.0
      thresh= 1.000E-02 alpha_mix =  0.300 |ddv_scf|^2 =  2.717E-08

      iter #   2 total cpu time :  1029.2 secs   av.it.:  13.4
      thresh= 1.648E-05 alpha_mix =  0.300 |ddv_scf|^2 =  8.378E-10

      iter #   3 total cpu time :  1041.1 secs   av.it.:  14.1
      thresh= 2.894E-06 alpha_mix =  0.300 |ddv_scf|^2 =  1.059E-10

      iter #   4 total cpu time :  1053.1 secs   av.it.:  14.4
      thresh= 1.029E-06 alpha_mix =  0.300 |ddv_scf|^2 =  7.651E-12

      iter #   5 total cpu time :  1064.9 secs   av.it.:  14.8
      thresh= 2.766E-07 alpha_mix =  0.300 |ddv_scf|^2 =  1.241E-12

      iter #   6 total cpu time :  1085.6 secs   av.it.:  15.0
      thresh= 1.114E-07 alpha_mix =  0.300 |ddv_scf|^2 =  8.320E-14

      iter #   7 total cpu time :  1097.5 secs   av.it.:  14.9
      thresh= 2.884E-08 alpha_mix =  0.300 |ddv_scf|^2 =  1.677E-14

      iter #   8 total cpu time :  1109.8 secs   av.it.:  14.9
      thresh= 1.295E-08 alpha_mix =  0.300 |ddv_scf|^2 =  2.409E-15

      iter #   9 total cpu time :  1122.2 secs   av.it.:  15.1
      thresh= 4.908E-09 alpha_mix =  0.300 |ddv_scf|^2 =  8.258E-17

     End of self-consistent calculation

     Convergence has been achieved 


     Representation #   6 mode #   6

     Self-consistent Calculation

      iter #   1 total cpu time :  1128.0 secs   av.it.:   4.5
      thresh= 1.000E-02 alpha_mix =  0.300 |ddv_scf|^2 =  8.842E-09

      iter #   2 total cpu time :  1139.0 secs   av.it.:  13.6
      thresh= 9.403E-06 alpha_mix =  0.300 |ddv_scf|^2 =  5.551E-10

      iter #   3 total cpu time :  1151.7 secs   av.it.:  14.4
      thresh= 2.356E-06 alpha_mix =  0.300 |ddv_scf|^2 =  5.026E-11

      iter #   4 total cpu time :  1163.4 secs   av.it.:  14.9
      thresh= 7.090E-07 alpha_mix =  0.300 |ddv_scf|^2 =  3.337E-12

      iter #   5 total cpu time :  1175.6 secs   av.it.:  15.4
      thresh= 1.827E-07 alpha_mix =  0.300 |ddv_scf|^2 =  5.501E-13

      iter #   6 total cpu time :  1189.0 secs   av.it.:  15.4
      thresh= 7.417E-08 alpha_mix =  0.300 |ddv_scf|^2 =  6.025E-14

      iter #   7 total cpu time :  1200.8 secs   av.it.:  15.1
      thresh= 2.455E-08 alpha_mix =  0.300 |ddv_scf|^2 =  7.536E-15

      iter #   8 total cpu time :  1213.2 secs   av.it.:  15.6
      thresh= 8.681E-09 alpha_mix =  0.300 |ddv_scf|^2 =  7.940E-16

      iter #   9 total cpu time :  1226.7 secs   av.it.:  15.5
      thresh= 2.818E-09 alpha_mix =  0.300 |ddv_scf|^2 =  1.055E-16

      iter #  10 total cpu time :  1238.8 secs   av.it.:  15.5
      thresh= 1.027E-09 alpha_mix =  0.300 |ddv_scf|^2 =  1.340E-17

     End of self-consistent calculation

     Convergence has been achieved 


     Representation #   7 mode #   7

     Self-consistent Calculation

      iter #   1 total cpu time :  1243.3 secs   av.it.:   2.0
      thresh= 1.000E-02 alpha_mix =  0.300 |ddv_scf|^2 =  6.037E-10

      iter #   2 total cpu time :  1255.4 secs   av.it.:  13.5
      thresh= 2.457E-06 alpha_mix =  0.300 |ddv_scf|^2 =  5.589E-11

      iter #   3 total cpu time :  1267.3 secs   av.it.:  14.1
      thresh= 7.476E-07 alpha_mix =  0.300 |ddv_scf|^2 =  2.975E-12

      iter #   4 total cpu time :  1279.2 secs   av.it.:  14.8
      thresh= 1.725E-07 alpha_mix =  0.300 |ddv_scf|^2 =  5.126E-13

      iter #   5 total cpu time :  1292.5 secs   av.it.:  15.4
      thresh= 7.160E-08 alpha_mix =  0.300 |ddv_scf|^2 =  7.597E-14

      iter #   6 total cpu time :  1304.3 secs   av.it.:  15.1
      thresh= 2.756E-08 alpha_mix =  0.300 |ddv_scf|^2 =  1.074E-14

      iter #   7 total cpu time :  1316.1 secs   av.it.:  15.1
      thresh= 1.036E-08 alpha_mix =  0.300 |ddv_scf|^2 =  1.015E-15

      iter #   8 total cpu time :  1328.9 secs   av.it.:  14.5
      thresh= 3.187E-09 alpha_mix =  0.300 |ddv_scf|^2 =  2.578E-16

      iter #   9 total cpu time :  1340.9 secs   av.it.:  15.4
      thresh= 1.606E-09 alpha_mix =  0.300 |ddv_scf|^2 =  2.089E-17

     End of self-consistent calculation

     Convergence has been achieved 


     Representation #   8 mode #   8

     Self-consistent Calculation

      iter #   1 total cpu time :  1345.4 secs   av.it.:   2.0
      thresh= 1.000E-02 alpha_mix =  0.300 |ddv_scf|^2 =  3.915E-10

      iter #   2 total cpu time :  1357.2 secs   av.it.:  13.9
      thresh= 1.979E-06 alpha_mix =  0.300 |ddv_scf|^2 =  4.057E-11

      iter #   3 total cpu time :  1369.5 secs   av.it.:  14.5
      thresh= 6.369E-07 alpha_mix =  0.300 |ddv_scf|^2 =  3.496E-12

      iter #   4 total cpu time :  1381.8 secs   av.it.:  15.5
      thresh= 1.870E-07 alpha_mix =  0.300 |ddv_scf|^2 =  2.314E-12

      iter #   5 total cpu time :  1393.8 secs   av.it.:  14.2
      thresh= 1.521E-07 alpha_mix =  0.300 |ddv_scf|^2 =  9.489E-14

      iter #   6 total cpu time :  1406.6 secs   av.it.:  15.2
      thresh= 3.080E-08 alpha_mix =  0.300 |ddv_scf|^2 =  2.190E-14

      iter #   7 total cpu time :  1418.3 secs   av.it.:  14.9
      thresh= 1.480E-08 alpha_mix =  0.300 |ddv_scf|^2 =  1.616E-15

      iter #   8 total cpu time :  1431.0 secs   av.it.:  15.2
      thresh= 4.020E-09 alpha_mix =  0.300 |ddv_scf|^2 =  1.337E-16

      iter #   9 total cpu time :  1443.6 secs   av.it.:  15.1
      thresh= 1.156E-09 alpha_mix =  0.300 |ddv_scf|^2 =  2.386E-17

     End of self-consistent calculation

     Convergence has been achieved 


     Representation #   9 mode #   9

     Self-consistent Calculation

      iter #   1 total cpu time :  1449.3 secs   av.it.:   4.0
      thresh= 1.000E-02 alpha_mix =  0.300 |ddv_scf|^2 =  4.781E-09

      iter #   2 total cpu time :  1461.2 secs   av.it.:  14.1
      thresh= 6.914E-06 alpha_mix =  0.300 |ddv_scf|^2 =  4.252E-10

      iter #   3 total cpu time :  1472.5 secs   av.it.:  14.4
      thresh= 2.062E-06 alpha_mix =  0.300 |ddv_scf|^2 =  3.893E-11

      iter #   4 total cpu time :  1484.8 secs   av.it.:  14.6
      thresh= 6.240E-07 alpha_mix =  0.300 |ddv_scf|^2 =  4.845E-12

      iter #   5 total cpu time :  1497.1 secs   av.it.:  15.0
      thresh= 2.201E-07 alpha_mix =  0.300 |ddv_scf|^2 =  4.133E-13

      iter #   6 total cpu time :  1509.0 secs   av.it.:  15.4
      thresh= 6.429E-08 alpha_mix =  0.300 |ddv_scf|^2 =  4.964E-14

      iter #   7 total cpu time :  1521.6 secs   av.it.:  15.1
      thresh= 2.228E-08 alpha_mix =  0.300 |ddv_scf|^2 =  8.728E-15

      iter #   8 total cpu time :  1534.1 secs   av.it.:  15.1
      thresh= 9.342E-09 alpha_mix =  0.300 |ddv_scf|^2 =  9.149E-16

      iter #   9 total cpu time :  1546.3 secs   av.it.:  15.5
      thresh= 3.025E-09 alpha_mix =  0.300 |ddv_scf|^2 =  8.197E-17

     End of self-consistent calculation

     Convergence has been achieved 


     Representation #  10 mode #  10

     Self-consistent Calculation

      iter #   1 total cpu time :  1553.0 secs   av.it.:   5.0
      thresh= 1.000E-02 alpha_mix =  0.300 |ddv_scf|^2 =  2.047E-08

      iter #   2 total cpu time :  1564.6 secs   av.it.:  13.8
      thresh= 1.431E-05 alpha_mix =  0.300 |ddv_scf|^2 =  6.952E-10

      iter #   3 total cpu time :  1576.2 secs   av.it.:  14.2
      thresh= 2.637E-06 alpha_mix =  0.300 |ddv_scf|^2 =  6.077E-11

      iter #   4 total cpu time :  1588.7 secs   av.it.:  14.9
      thresh= 7.796E-07 alpha_mix =  0.300 |ddv_scf|^2 =  8.539E-12

      iter #   5 total cpu time :  1601.3 secs   av.it.:  15.0
      thresh= 2.922E-07 alpha_mix =  0.300 |ddv_scf|^2 =  1.239E-12

      iter #   6 total cpu time :  1613.5 secs   av.it.:  15.5
      thresh= 1.113E-07 alpha_mix =  0.300 |ddv_scf|^2 =  1.077E-13

      iter #   7 total cpu time :  1626.0 secs   av.it.:  15.0
      thresh= 3.281E-08 alpha_mix =  0.300 |ddv_scf|^2 =  2.675E-14

      iter #   8 total cpu time :  1638.6 secs   av.it.:  15.4
      thresh= 1.636E-08 alpha_mix =  0.300 |ddv_scf|^2 =  2.938E-15

      iter #   9 total cpu time :  1650.7 secs   av.it.:  15.5
      thresh= 5.420E-09 alpha_mix =  0.300 |ddv_scf|^2 =  1.960E-16

      iter #  10 total cpu time :  1663.5 secs   av.it.:  15.4
      thresh= 1.400E-09 alpha_mix =  0.300 |ddv_scf|^2 =  2.304E-17

     End of self-consistent calculation

     Convergence has been achieved 


     Representation #  11 mode #  11

     Self-consistent Calculation

      iter #   1 total cpu time :  1670.0 secs   av.it.:   4.9
      thresh= 1.000E-02 alpha_mix =  0.300 |ddv_scf|^2 =  8.137E-09

      iter #   2 total cpu time :  1681.2 secs   av.it.:  14.1
      thresh= 9.021E-06 alpha_mix =  0.300 |ddv_scf|^2 =  6.593E-10

      iter #   3 total cpu time :  1692.7 secs   av.it.:  14.5
      thresh= 2.568E-06 alpha_mix =  0.300 |ddv_scf|^2 =  4.364E-11

      iter #   4 total cpu time :  1705.8 secs   av.it.:  14.6
      thresh= 6.606E-07 alpha_mix =  0.300 |ddv_scf|^2 =  4.676E-12

      iter #   5 total cpu time :  1717.9 secs   av.it.:  15.4
      thresh= 2.162E-07 alpha_mix =  0.300 |ddv_scf|^2 =  5.360E-13

      iter #   6 total cpu time :  1729.9 secs   av.it.:  15.4
      thresh= 7.321E-08 alpha_mix =  0.300 |ddv_scf|^2 =  6.092E-14

      iter #   7 total cpu time :  1742.9 secs   av.it.:  15.4
      thresh= 2.468E-08 alpha_mix =  0.300 |ddv_scf|^2 =  7.958E-15

      iter #   8 total cpu time :  1755.1 secs   av.it.:  15.5
      thresh= 8.921E-09 alpha_mix =  0.300 |ddv_scf|^2 =  6.325E-16

      iter #   9 total cpu time :  1767.3 secs   av.it.:  15.5
      thresh= 2.515E-09 alpha_mix =  0.300 |ddv_scf|^2 =  8.897E-17

     End of self-consistent calculation

     Convergence has been achieved 


     Representation #  12 mode #  12

     Self-consistent Calculation

      iter #   1 total cpu time :  1773.5 secs   av.it.:   3.0
      thresh= 1.000E-02 alpha_mix =  0.300 |ddv_scf|^2 =  6.577E-10

      iter #   2 total cpu time :  1784.7 secs   av.it.:  14.1
      thresh= 2.565E-06 alpha_mix =  0.300 |ddv_scf|^2 =  3.627E-11

      iter #   3 total cpu time :  1796.7 secs   av.it.:  14.8
      thresh= 6.022E-07 alpha_mix =  0.300 |ddv_scf|^2 =  2.616E-12

      iter #   4 total cpu time :  1810.0 secs   av.it.:  15.4
      thresh= 1.617E-07 alpha_mix =  0.300 |ddv_scf|^2 =  3.583E-13

      iter #   5 total cpu time :  1822.0 secs   av.it.:  15.5
      thresh= 5.986E-08 alpha_mix =  0.300 |ddv_scf|^2 =  4.346E-14

      iter #   6 total cpu time :  1833.9 secs   av.it.:  15.2
      thresh= 2.085E-08 alpha_mix =  0.300 |ddv_scf|^2 =  6.792E-15

      iter #   7 total cpu time :  1847.0 secs   av.it.:  14.9
      thresh= 8.241E-09 alpha_mix =  0.300 |ddv_scf|^2 =  1.083E-15

      iter #   8 total cpu time :  1859.1 secs   av.it.:  15.4
      thresh= 3.291E-09 alpha_mix =  0.300 |ddv_scf|^2 =  1.563E-16

      iter #   9 total cpu time :  1871.1 secs   av.it.:  15.4
      thresh= 1.250E-09 alpha_mix =  0.300 |ddv_scf|^2 =  2.584E-17

     End of self-consistent calculation

     Convergence has been achieved 


     Representation #  13 mode #  13

     Self-consistent Calculation

      iter #   1 total cpu time :  1876.2 secs   av.it.:   2.4
      thresh= 1.000E-02 alpha_mix =  0.300 |ddv_scf|^2 =  4.430E-10

      iter #   2 total cpu time :  1888.2 secs   av.it.:  13.9
      thresh= 2.105E-06 alpha_mix =  0.300 |ddv_scf|^2 =  5.700E-11

      iter #   3 total cpu time :  1899.6 secs   av.it.:  14.6
      thresh= 7.550E-07 alpha_mix =  0.300 |ddv_scf|^2 =  3.029E-12

      iter #   4 total cpu time :  1912.4 secs   av.it.:  15.0
      thresh= 1.740E-07 alpha_mix =  0.300 |ddv_scf|^2 =  7.771E-13

      iter #   5 total cpu time :  1924.8 secs   av.it.:  14.9
      thresh= 8.815E-08 alpha_mix =  0.300 |ddv_scf|^2 =  5.929E-14

      iter #   6 total cpu time :  1936.5 secs   av.it.:  15.0
      thresh= 2.435E-08 alpha_mix =  0.300 |ddv_scf|^2 =  1.092E-14

      iter #   7 total cpu time :  1949.3 secs   av.it.:  15.2
      thresh= 1.045E-08 alpha_mix =  0.300 |ddv_scf|^2 =  1.116E-15

      iter #   8 total cpu time :  1961.6 secs   av.it.:  14.8
      thresh= 3.341E-09 alpha_mix =  0.300 |ddv_scf|^2 =  2.420E-16

      iter #   9 total cpu time :  1973.7 secs   av.it.:  15.4
      thresh= 1.555E-09 alpha_mix =  0.300 |ddv_scf|^2 =  1.946E-17

     End of self-consistent calculation

     Convergence has been achieved 


     Representation #  14 mode #  14

     Self-consistent Calculation

      iter #   1 total cpu time :  1978.7 secs   av.it.:   3.0
      thresh= 1.000E-02 alpha_mix =  0.300 |ddv_scf|^2 =  6.781E-10

      iter #   2 total cpu time :  1989.7 secs   av.it.:  13.9
      thresh= 2.604E-06 alpha_mix =  0.300 |ddv_scf|^2 =  6.520E-11

      iter #   3 total cpu time :  2002.1 secs   av.it.:  14.4
      thresh= 8.075E-07 alpha_mix =  0.300 |ddv_scf|^2 =  4.322E-12

      iter #   4 total cpu time :  2014.2 secs   av.it.:  14.4
      thresh= 2.079E-07 alpha_mix =  0.300 |ddv_scf|^2 =  7.233E-13

      iter #   5 total cpu time :  2026.1 secs   av.it.:  15.1
      thresh= 8.505E-08 alpha_mix =  0.300 |ddv_scf|^2 =  8.189E-14

      iter #   6 total cpu time :  2039.0 secs   av.it.:  15.1
      thresh= 2.862E-08 alpha_mix =  0.300 |ddv_scf|^2 =  6.189E-15

      iter #   7 total cpu time :  2051.0 secs   av.it.:  14.5
      thresh= 7.867E-09 alpha_mix =  0.300 |ddv_scf|^2 =  1.394E-15

      iter #   8 total cpu time :  2062.8 secs   av.it.:  14.9
      thresh= 3.733E-09 alpha_mix =  0.300 |ddv_scf|^2 =  2.336E-16

      iter #   9 total cpu time :  2075.2 secs   av.it.:  14.5
      thresh= 1.528E-09 alpha_mix =  0.300 |ddv_scf|^2 =  2.992E-17

     End of self-consistent calculation

     Convergence has been achieved 


     Representation #  15 mode #  15

     Self-consistent Calculation

      iter #   1 total cpu time :  2081.8 secs   av.it.:   5.4
      thresh= 1.000E-02 alpha_mix =  0.300 |ddv_scf|^2 =  1.834E-07

      iter #   2 total cpu time :  2092.7 secs   av.it.:  13.5
      thresh= 4.283E-05 alpha_mix =  0.300 |ddv_scf|^2 =  6.853E-09

      iter #   3 total cpu time :  2103.6 secs   av.it.:  13.5
      thresh= 8.278E-06 alpha_mix =  0.300 |ddv_scf|^2 =  2.734E-10

      iter #   4 total cpu time :  2116.6 secs   av.it.:  14.5
      thresh= 1.654E-06 alpha_mix =  0.300 |ddv_scf|^2 =  3.479E-11

      iter #   5 total cpu time :  2128.5 secs   av.it.:  14.6
      thresh= 5.898E-07 alpha_mix =  0.300 |ddv_scf|^2 =  4.203E-12

      iter #   6 total cpu time :  2140.1 secs   av.it.:  15.0
      thresh= 2.050E-07 alpha_mix =  0.300 |ddv_scf|^2 =  2.750E-13

      iter #   7 total cpu time :  2152.9 secs   av.it.:  14.4
      thresh= 5.244E-08 alpha_mix =  0.300 |ddv_scf|^2 =  7.243E-14

      iter #   8 total cpu time :  2164.9 secs   av.it.:  14.8
      thresh= 2.691E-08 alpha_mix =  0.300 |ddv_scf|^2 =  9.076E-15

      iter #   9 total cpu time :  2176.6 secs   av.it.:  15.0
      thresh= 9.527E-09 alpha_mix =  0.300 |ddv_scf|^2 =  5.456E-16

      iter #  10 total cpu time :  2189.6 secs   av.it.:  14.8
      thresh= 2.336E-09 alpha_mix =  0.300 |ddv_scf|^2 =  1.105E-16

      iter #  11 total cpu time :  2201.4 secs   av.it.:  14.9
      thresh= 1.051E-09 alpha_mix =  0.300 |ddv_scf|^2 =  1.702E-17

     End of self-consistent calculation

     Convergence has been achieved 


     Representation #  16 mode #  16

     Self-consistent Calculation

      iter #   1 total cpu time :  2207.6 secs   av.it.:   5.0
      thresh= 1.000E-02 alpha_mix =  0.300 |ddv_scf|^2 =  1.959E-08

      iter #   2 total cpu time :  2224.0 secs   av.it.:  14.0
      thresh= 1.400E-05 alpha_mix =  0.300 |ddv_scf|^2 =  7.743E-10

      iter #   3 total cpu time :  2235.6 secs   av.it.:  14.5
      thresh= 2.783E-06 alpha_mix =  0.300 |ddv_scf|^2 =  7.443E-11

      iter #   4 total cpu time :  2247.8 secs   av.it.:  15.0
      thresh= 8.627E-07 alpha_mix =  0.300 |ddv_scf|^2 =  9.736E-12

      iter #   5 total cpu time :  2260.6 secs   av.it.:  15.5
      thresh= 3.120E-07 alpha_mix =  0.300 |ddv_scf|^2 =  6.709E-13

      iter #   6 total cpu time :  2272.5 secs   av.it.:  15.1
      thresh= 8.191E-08 alpha_mix =  0.300 |ddv_scf|^2 =  1.274E-13

      iter #   7 total cpu time :  2285.2 secs   av.it.:  15.4
      thresh= 3.569E-08 alpha_mix =  0.300 |ddv_scf|^2 =  2.465E-14

      iter #   8 total cpu time :  2297.9 secs   av.it.:  15.5
      thresh= 1.570E-08 alpha_mix =  0.300 |ddv_scf|^2 =  2.635E-15

      iter #   9 total cpu time :  2310.2 secs   av.it.:  15.5
      thresh= 5.133E-09 alpha_mix =  0.300 |ddv_scf|^2 =  1.164E-16

      iter #  10 total cpu time :  2322.5 secs   av.it.:  15.1
      thresh= 1.079E-09 alpha_mix =  0.300 |ddv_scf|^2 =  2.760E-17

     End of self-consistent calculation

     Convergence has been achieved 


     Representation #  17 mode #  17

     Self-consistent Calculation

      iter #   1 total cpu time :  2327.3 secs   av.it.:   3.0
      thresh= 1.000E-02 alpha_mix =  0.300 |ddv_scf|^2 =  8.907E-10

      iter #   2 total cpu time :  2338.7 secs   av.it.:  13.5
      thresh= 2.984E-06 alpha_mix =  0.300 |ddv_scf|^2 =  5.953E-11

      iter #   3 total cpu time :  2350.4 secs   av.it.:  14.4
      thresh= 7.715E-07 alpha_mix =  0.300 |ddv_scf|^2 =  4.098E-12

      iter #   4 total cpu time :  2362.4 secs   av.it.:  15.1
      thresh= 2.024E-07 alpha_mix =  0.300 |ddv_scf|^2 =  3.724E-13

      iter #   5 total cpu time :  2375.0 secs   av.it.:  14.9
      thresh= 6.102E-08 alpha_mix =  0.300 |ddv_scf|^2 =  6.319E-14

      iter #   6 total cpu time :  2387.4 secs   av.it.:  15.1
      thresh= 2.514E-08 alpha_mix =  0.300 |ddv_scf|^2 =  9.460E-15

      iter #   7 total cpu time :  2399.5 secs   av.it.:  15.4
      thresh= 9.726E-09 alpha_mix =  0.300 |ddv_scf|^2 =  6.239E-16

      iter #   8 total cpu time :  2411.8 secs   av.it.:  14.6
      thresh= 2.498E-09 alpha_mix =  0.300 |ddv_scf|^2 =  1.966E-16

      iter #   9 total cpu time :  2424.3 secs   av.it.:  15.0
      thresh= 1.402E-09 alpha_mix =  0.300 |ddv_scf|^2 =  2.068E-17

     End of self-consistent calculation

     Convergence has been achieved 


     Representation #  18 mode #  18

     Self-consistent Calculation

      iter #   1 total cpu time :  2429.2 secs   av.it.:   3.0
      thresh= 1.000E-02 alpha_mix =  0.300 |ddv_scf|^2 =  1.006E-09

      iter #   2 total cpu time :  2441.1 secs   av.it.:  14.1
      thresh= 3.171E-06 alpha_mix =  0.300 |ddv_scf|^2 =  2.066E-11

      iter #   3 total cpu time :  2452.9 secs   av.it.:  15.0
      thresh= 4.545E-07 alpha_mix =  0.300 |ddv_scf|^2 =  4.738E-12

      iter #   4 total cpu time :  2464.7 secs   av.it.:  14.5
      thresh= 2.177E-07 alpha_mix =  0.300 |ddv_scf|^2 =  6.794E-13

      iter #   5 total cpu time :  2477.2 secs   av.it.:  15.4
      thresh= 8.242E-08 alpha_mix =  0.300 |ddv_scf|^2 =  5.335E-14

      iter #   6 total cpu time :  2490.0 secs   av.it.:  15.4
      thresh= 2.310E-08 alpha_mix =  0.300 |ddv_scf|^2 =  6.763E-15

      iter #   7 total cpu time :  2501.6 secs   av.it.:  14.9
      thresh= 8.224E-09 alpha_mix =  0.300 |ddv_scf|^2 =  9.880E-16

      iter #   8 total cpu time :  2513.9 secs   av.it.:  14.8
      thresh= 3.143E-09 alpha_mix =  0.300 |ddv_scf|^2 =  2.427E-16

      iter #   9 total cpu time :  2526.4 secs   av.it.:  15.1
      thresh= 1.558E-09 alpha_mix =  0.300 |ddv_scf|^2 =  2.897E-17

     End of self-consistent calculation

     Convergence has been achieved 


     Representation #  19 mode #  19

     Self-consistent Calculation

      iter #   1 total cpu time :  2531.0 secs   av.it.:   2.0
      thresh= 1.000E-02 alpha_mix =  0.300 |ddv_scf|^2 =  2.157E-10

      iter #   2 total cpu time :  2542.2 secs   av.it.:  14.2
      thresh= 1.469E-06 alpha_mix =  0.300 |ddv_scf|^2 =  2.746E-11

      iter #   3 total cpu time :  2554.8 secs   av.it.:  14.9
      thresh= 5.241E-07 alpha_mix =  0.300 |ddv_scf|^2 =  2.626E-12

      iter #   4 total cpu time :  2567.1 secs   av.it.:  14.9
      thresh= 1.620E-07 alpha_mix =  0.300 |ddv_scf|^2 =  4.077E-13

      iter #   5 total cpu time :  2578.7 secs   av.it.:  14.6
      thresh= 6.385E-08 alpha_mix =  0.300 |ddv_scf|^2 =  4.015E-14

      iter #   6 total cpu time :  2592.0 secs   av.it.:  15.4
      thresh= 2.004E-08 alpha_mix =  0.300 |ddv_scf|^2 =  5.292E-15

      iter #   7 total cpu time :  2603.8 secs   av.it.:  14.9
      thresh= 7.275E-09 alpha_mix =  0.300 |ddv_scf|^2 =  8.202E-16

      iter #   8 total cpu time :  2615.9 secs   av.it.:  15.1
      thresh= 2.864E-09 alpha_mix =  0.300 |ddv_scf|^2 =  1.174E-16

      iter #   9 total cpu time :  2629.0 secs   av.it.:  15.0
      thresh= 1.083E-09 alpha_mix =  0.300 |ddv_scf|^2 =  1.349E-17

     End of self-consistent calculation

     Convergence has been achieved 


     Representation #  20 mode #  20

     Self-consistent Calculation

      iter #   1 total cpu time :  2634.7 secs   av.it.:   4.1
      thresh= 1.000E-02 alpha_mix =  0.300 |ddv_scf|^2 =  2.258E-09

      iter #   2 total cpu time :  2646.1 secs   av.it.:  14.4
      thresh= 4.752E-06 alpha_mix =  0.300 |ddv_scf|^2 =  1.625E-10

      iter #   3 total cpu time :  2657.9 secs   av.it.:  14.6
      thresh= 1.275E-06 alpha_mix =  0.300 |ddv_scf|^2 =  2.825E-11

      iter #   4 total cpu time :  2670.7 secs   av.it.:  15.0
      thresh= 5.316E-07 alpha_mix =  0.300 |ddv_scf|^2 =  2.083E-12

      iter #   5 total cpu time :  2682.9 secs   av.it.:  15.4
      thresh= 1.443E-07 alpha_mix =  0.300 |ddv_scf|^2 =  2.569E-13

      iter #   6 total cpu time :  2695.5 secs   av.it.:  15.5
      thresh= 5.068E-08 alpha_mix =  0.300 |ddv_scf|^2 =  3.452E-14

      iter #   7 total cpu time :  2708.4 secs   av.it.:  15.1
      thresh= 1.858E-08 alpha_mix =  0.300 |ddv_scf|^2 =  7.577E-15

      iter #   8 total cpu time :  2720.6 secs   av.it.:  15.5
      thresh= 8.705E-09 alpha_mix =  0.300 |ddv_scf|^2 =  3.115E-16

      iter #   9 total cpu time :  2733.1 secs   av.it.:  15.4
      thresh= 1.765E-09 alpha_mix =  0.300 |ddv_scf|^2 =  5.229E-17

     End of self-consistent calculation

     Convergence has been achieved 


     Representation #  21 mode #  21

     Self-consistent Calculation

      iter #   1 total cpu time :  2739.9 secs   av.it.:   4.8
      thresh= 1.000E-02 alpha_mix =  0.300 |ddv_scf|^2 =  4.741E-08

      iter #   2 total cpu time :  2750.9 secs   av.it.:  13.4
      thresh= 2.177E-05 alpha_mix =  0.300 |ddv_scf|^2 =  9.736E-10

      iter #   3 total cpu time :  2762.7 secs   av.it.:  14.2
      thresh= 3.120E-06 alpha_mix =  0.300 |ddv_scf|^2 =  1.136E-10

      iter #   4 total cpu time :  2775.0 secs   av.it.:  14.8
      thresh= 1.066E-06 alpha_mix =  0.300 |ddv_scf|^2 =  9.839E-12

      iter #   5 total cpu time :  2786.9 secs   av.it.:  15.0
      thresh= 3.137E-07 alpha_mix =  0.300 |ddv_scf|^2 =  1.172E-12

      iter #   6 total cpu time :  2799.6 secs   av.it.:  15.2
      thresh= 1.083E-07 alpha_mix =  0.300 |ddv_scf|^2 =  9.859E-14

      iter #   7 total cpu time :  2812.0 secs   av.it.:  14.9
      thresh= 3.140E-08 alpha_mix =  0.300 |ddv_scf|^2 =  1.873E-14

      iter #   8 total cpu time :  2823.9 secs   av.it.:  14.9
      thresh= 1.369E-08 alpha_mix =  0.300 |ddv_scf|^2 =  2.191E-15

      iter #   9 total cpu time :  2836.3 secs   av.it.:  15.1
      thresh= 4.681E-09 alpha_mix =  0.300 |ddv_scf|^2 =  1.096E-16

      iter #  10 total cpu time :  2848.9 secs   av.it.:  15.2
      thresh= 1.047E-09 alpha_mix =  0.300 |ddv_scf|^2 =  2.179E-17

     End of self-consistent calculation

     Convergence has been achieved 


     Representation #  22 mode #  22

     Self-consistent Calculation

      iter #   1 total cpu time :  2853.7 secs   av.it.:   3.0
      thresh= 1.000E-02 alpha_mix =  0.300 |ddv_scf|^2 =  6.459E-10

      iter #   2 total cpu time :  2865.6 secs   av.it.:  14.1
      thresh= 2.541E-06 alpha_mix =  0.300 |ddv_scf|^2 =  5.604E-11

      iter #   3 total cpu time :  2877.2 secs   av.it.:  14.9
      thresh= 7.486E-07 alpha_mix =  0.300 |ddv_scf|^2 =  3.250E-12

      iter #   4 total cpu time :  2889.8 secs   av.it.:  14.9
      thresh= 1.803E-07 alpha_mix =  0.300 |ddv_scf|^2 =  4.786E-13

      iter #   5 total cpu time :  2902.5 secs   av.it.:  14.9
      thresh= 6.918E-08 alpha_mix =  0.300 |ddv_scf|^2 =  4.460E-14

      iter #   6 total cpu time :  2913.8 secs   av.it.:  14.6
      thresh= 2.112E-08 alpha_mix =  0.300 |ddv_scf|^2 =  1.369E-14

      iter #   7 total cpu time :  2926.5 secs   av.it.:  15.1
      thresh= 1.170E-08 alpha_mix =  0.300 |ddv_scf|^2 =  1.888E-15

      iter #   8 total cpu time :  2939.2 secs   av.it.:  15.4
      thresh= 4.345E-09 alpha_mix =  0.300 |ddv_scf|^2 =  1.094E-16

      iter #   9 total cpu time :  2950.7 secs   av.it.:  14.6
      thresh= 1.046E-09 alpha_mix =  0.300 |ddv_scf|^2 =  3.417E-17

     End of self-consistent calculation

     Convergence has been achieved 


     Representation #  23 mode #  23

     Self-consistent Calculation

      iter #   1 total cpu time :  2955.4 secs   av.it.:   3.0
      thresh= 1.000E-02 alpha_mix =  0.300 |ddv_scf|^2 =  4.553E-10

      iter #   2 total cpu time :  2968.1 secs   av.it.:  14.1
      thresh= 2.134E-06 alpha_mix =  0.300 |ddv_scf|^2 =  4.842E-11

      iter #   3 total cpu time :  2979.8 secs   av.it.:  15.0
      thresh= 6.958E-07 alpha_mix =  0.300 |ddv_scf|^2 =  3.052E-12

      iter #   4 total cpu time :  2991.5 secs   av.it.:  14.9
      thresh= 1.747E-07 alpha_mix =  0.300 |ddv_scf|^2 =  5.952E-13

      iter #   5 total cpu time :  3004.9 secs   av.it.:  15.1
      thresh= 7.715E-08 alpha_mix =  0.300 |ddv_scf|^2 =  5.102E-14

      iter #   6 total cpu time :  3016.9 secs   av.it.:  15.4
      thresh= 2.259E-08 alpha_mix =  0.300 |ddv_scf|^2 =  6.630E-15

      iter #   7 total cpu time :  3028.6 secs   av.it.:  14.9
      thresh= 8.142E-09 alpha_mix =  0.300 |ddv_scf|^2 =  1.488E-15

      iter #   8 total cpu time :  3041.9 secs   av.it.:  15.1
      thresh= 3.857E-09 alpha_mix =  0.300 |ddv_scf|^2 =  1.595E-16

      iter #   9 total cpu time :  3053.8 secs   av.it.:  15.0
      thresh= 1.263E-09 alpha_mix =  0.300 |ddv_scf|^2 =  2.608E-17

     End of self-consistent calculation

     Convergence has been achieved 


     Representation #  24 mode #  24

     Self-consistent Calculation

      iter #   1 total cpu time :  3058.1 secs   av.it.:   2.0
      thresh= 1.000E-02 alpha_mix =  0.300 |ddv_scf|^2 =  1.835E-10

      iter #   2 total cpu time :  3069.0 secs   av.it.:  13.8
      thresh= 1.355E-06 alpha_mix =  0.300 |ddv_scf|^2 =  2.856E-11

      iter #   3 total cpu time :  3081.9 secs   av.it.:  14.6
      thresh= 5.344E-07 alpha_mix =  0.300 |ddv_scf|^2 =  3.383E-12

      iter #   4 total cpu time :  3094.0 secs   av.it.:  15.2
      thresh= 1.839E-07 alpha_mix =  0.300 |ddv_scf|^2 =  2.029E-12

      iter #   5 total cpu time :  3105.8 secs   av.it.:  14.6
      thresh= 1.425E-07 alpha_mix =  0.300 |ddv_scf|^2 =  4.774E-14

      iter #   6 total cpu time :  3118.6 secs   av.it.:  15.2
      thresh= 2.185E-08 alpha_mix =  0.300 |ddv_scf|^2 =  7.657E-15

      iter #   7 total cpu time :  3130.6 secs   av.it.:  15.4
      thresh= 8.750E-09 alpha_mix =  0.300 |ddv_scf|^2 =  3.964E-16

      iter #   8 total cpu time :  3142.9 secs   av.it.:  14.8
      thresh= 1.991E-09 alpha_mix =  0.300 |ddv_scf|^2 =  1.112E-16

      iter #   9 total cpu time :  3155.8 secs   av.it.:  15.4
      thresh= 1.054E-09 alpha_mix =  0.300 |ddv_scf|^2 =  1.163E-17

     End of self-consistent calculation

     Convergence has been achieved 


     Representation #  25 mode #  25

     Self-consistent Calculation

      iter #   1 total cpu time :  3161.5 secs   av.it.:   4.0
      thresh= 1.000E-02 alpha_mix =  0.300 |ddv_scf|^2 =  6.517E-09

      iter #   2 total cpu time :  3172.6 secs   av.it.:  14.0
      thresh= 8.073E-06 alpha_mix =  0.300 |ddv_scf|^2 =  3.693E-10

      iter #   3 total cpu time :  3185.3 secs   av.it.:  14.4
      thresh= 1.922E-06 alpha_mix =  0.300 |ddv_scf|^2 =  4.986E-11

      iter #   4 total cpu time :  3197.1 secs   av.it.:  14.9
      thresh= 7.061E-07 alpha_mix =  0.300 |ddv_scf|^2 =  1.848E-12

      iter #   5 total cpu time :  3209.6 secs   av.it.:  15.1
      thresh= 1.359E-07 alpha_mix =  0.300 |ddv_scf|^2 =  2.790E-13

      iter #   6 total cpu time :  3222.3 secs   av.it.:  15.2
      thresh= 5.282E-08 alpha_mix =  0.300 |ddv_scf|^2 =  2.711E-14

      iter #   7 total cpu time :  3234.0 secs   av.it.:  14.9
      thresh= 1.647E-08 alpha_mix =  0.300 |ddv_scf|^2 =  4.810E-15

      iter #   8 total cpu time :  3246.6 secs   av.it.:  15.5
      thresh= 6.936E-09 alpha_mix =  0.300 |ddv_scf|^2 =  2.740E-16

      iter #   9 total cpu time :  3259.2 secs   av.it.:  14.9
      thresh= 1.655E-09 alpha_mix =  0.300 |ddv_scf|^2 =  7.828E-17

     End of self-consistent calculation

     Convergence has been achieved 


     Representation #  26 mode #  26

     Self-consistent Calculation

      iter #   1 total cpu time :  3263.7 secs   av.it.:   2.5
      thresh= 1.000E-02 alpha_mix =  0.300 |ddv_scf|^2 =  6.296E-10

      iter #   2 total cpu time :  3274.7 secs   av.it.:  13.6
      thresh= 2.509E-06 alpha_mix =  0.300 |ddv_scf|^2 =  4.463E-11

      iter #   3 total cpu time :  3286.7 secs   av.it.:  14.4
      thresh= 6.681E-07 alpha_mix =  0.300 |ddv_scf|^2 =  3.953E-12

      iter #   4 total cpu time :  3299.4 secs   av.it.:  15.0
      thresh= 1.988E-07 alpha_mix =  0.300 |ddv_scf|^2 =  7.835E-13

      iter #   5 total cpu time :  3311.3 secs   av.it.:  14.9
      thresh= 8.851E-08 alpha_mix =  0.300 |ddv_scf|^2 =  2.874E-13

      iter #   6 total cpu time :  3323.0 secs   av.it.:  14.4
      thresh= 5.361E-08 alpha_mix =  0.300 |ddv_scf|^2 =  2.645E-14

      iter #   7 total cpu time :  3335.5 secs   av.it.:  14.8
      thresh= 1.626E-08 alpha_mix =  0.300 |ddv_scf|^2 =  9.841E-16

      iter #   8 total cpu time :  3347.7 secs   av.it.:  14.6
      thresh= 3.137E-09 alpha_mix =  0.300 |ddv_scf|^2 =  2.008E-16

      iter #   9 total cpu time :  3359.6 secs   av.it.:  15.1
      thresh= 1.417E-09 alpha_mix =  0.300 |ddv_scf|^2 =  1.808E-17

     End of self-consistent calculation

     Convergence has been achieved 


     Representation #  27 mode #  27

     Self-consistent Calculation

      iter #   1 total cpu time :  3365.2 secs   av.it.:   4.0
      thresh= 1.000E-02 alpha_mix =  0.300 |ddv_scf|^2 =  1.297E-08

      iter #   2 total cpu time :  3376.6 secs   av.it.:  13.4
      thresh= 1.139E-05 alpha_mix =  0.300 |ddv_scf|^2 =  5.970E-10

      iter #   3 total cpu time :  3388.3 secs   av.it.:  13.9
      thresh= 2.443E-06 alpha_mix =  0.300 |ddv_scf|^2 =  8.453E-11

      iter #   4 total cpu time :  3400.0 secs   av.it.:  14.4
      thresh= 9.194E-07 alpha_mix =  0.300 |ddv_scf|^2 =  4.731E-12

[...]
     freq (   91) =      39.547760 [THz] =    1319.171263 [cm-1]
     freq (   92) =      39.549045 [THz] =    1319.214140 [cm-1]
     freq (   93) =      41.628621 [THz] =    1388.581317 [cm-1]
     freq (   94) =      41.640888 [THz] =    1388.990511 [cm-1]
     freq (   95) =      41.817296 [THz] =    1394.874836 [cm-1]
     freq (   96) =      41.877788 [THz] =    1396.892639 [cm-1]
     freq (   97) =      42.064163 [THz] =    1403.109453 [cm-1]
     freq (   98) =      42.135117 [THz] =    1405.476211 [cm-1]
     freq (   99) =      42.303686 [THz] =    1411.099079 [cm-1]
     freq (  100) =      42.318344 [THz] =    1411.588004 [cm-1]
     freq (  101) =      42.399045 [THz] =    1414.279924 [cm-1]
     freq (  102) =      42.514693 [THz] =    1418.137507 [cm-1]
     freq (  103) =      42.764701 [THz] =    1426.476864 [cm-1]
     freq (  104) =      42.778044 [THz] =    1426.921941 [cm-1]
     freq (  105) =      42.954889 [THz] =    1432.820880 [cm-1]
     freq (  106) =      43.005971 [THz] =    1434.524789 [cm-1]
     freq (  107) =      43.072683 [THz] =    1436.750058 [cm-1]
     freq (  108) =      43.113123 [THz] =    1438.098972 [cm-1]
     freq (  109) =      43.304030 [THz] =    1444.466947 [cm-1]
     freq (  110) =      43.403344 [THz] =    1447.779728 [cm-1]
     freq (  111) =      43.565828 [THz] =    1453.199604 [cm-1]
     freq (  112) =      43.618031 [THz] =    1454.940917 [cm-1]
     freq (  113) =      43.635520 [THz] =    1455.524278 [cm-1]
     freq (  114) =      43.797183 [THz] =    1460.916781 [cm-1]
     freq (  115) =      44.087442 [THz] =    1470.598769 [cm-1]
     freq (  116) =      44.245731 [THz] =    1475.878725 [cm-1]
     freq (  117) =      44.292980 [THz] =    1477.454786 [cm-1]
     freq (  118) =      44.451084 [THz] =    1482.728573 [cm-1]
     freq (  119) =      46.231202 [THz] =    1542.106917 [cm-1]
     freq (  120) =      46.274407 [THz] =    1543.548085 [cm-1]
     freq (  121) =      46.405656 [THz] =    1547.926056 [cm-1]
     freq (  122) =      46.574239 [THz] =    1553.549397 [cm-1]
     freq (  123) =      88.627805 [THz] =    2956.305369 [cm-1]
     freq (  124) =      88.746434 [THz] =    2960.262410 [cm-1]
     freq (  125) =      88.820062 [THz] =    2962.718351 [cm-1]
     freq (  126) =      88.952849 [THz] =    2967.147672 [cm-1]
     freq (  127) =      89.117594 [THz] =    2972.642974 [cm-1]
     freq (  128) =      89.126464 [THz] =    2972.938842 [cm-1]
     freq (  129) =      89.134713 [THz] =    2973.213988 [cm-1]
     freq (  130) =      89.143118 [THz] =    2973.494352 [cm-1]
     freq (  131) =      89.244793 [THz] =    2976.885855 [cm-1]
     freq (  132) =      89.250901 [THz] =    2977.089616 [cm-1]
     freq (  133) =      89.478828 [THz] =    2984.692416 [cm-1]
     freq (  134) =      89.536830 [THz] =    2986.627156 [cm-1]
     freq (  135) =      90.301773 [THz] =    3012.142919 [cm-1]
     freq (  136) =      90.374746 [THz] =    3014.577046 [cm-1]
     freq (  137) =      90.391603 [THz] =    3015.139333 [cm-1]
     freq (  138) =      90.594375 [THz] =    3021.903086 [cm-1]
     freq (  139) =      91.015260 [THz] =    3035.942270 [cm-1]
     freq (  140) =      91.022255 [THz] =    3036.175603 [cm-1]
     freq (  141) =      91.482088 [THz] =    3051.513984 [cm-1]
     freq (  142) =      91.520214 [THz] =    3052.785725 [cm-1]
     freq (  143) =      91.568952 [THz] =    3054.411478 [cm-1]
     freq (  144) =      91.572391 [THz] =    3054.526181 [cm-1]
     freq (  145) =      91.613956 [THz] =    3055.912647 [cm-1]
     freq (  146) =      91.642354 [THz] =    3056.859905 [cm-1]
     freq (  147) =      92.268439 [THz] =    3077.743823 [cm-1]
     freq (  148) =      92.291250 [THz] =    3078.504723 [cm-1]
     freq (  149) =      92.328293 [THz] =    3079.740349 [cm-1]
     freq (  150) =      92.346958 [THz] =    3080.362939 [cm-1]
 **************************************************************************

     Mode symmetry, C_2v (mm2)  point group:

     freq (   1-   1) =         19.1  [cm-1]   --> B_1  D_3  S_3      
     freq (   2-   2) =         21.9  [cm-1]   --> B_2  D_4  S_4      
     freq (   3-   3) =         29.7  [cm-1]   --> A_1  D_1  S_1      
     freq (   4-   4) =         31.4  [cm-1]   --> B_1  D_3  S_3      
     freq (   5-   5) =         32.3  [cm-1]   --> A_2  D_2  S_2      
     freq (   6-   6) =         34.4  [cm-1]   --> B_1  D_3  S_3      
     freq (   7-   7) =         35.0  [cm-1]   --> B_2  D_4  S_4      
     freq (   8-   8) =         39.6  [cm-1]   --> B_1  D_3  S_3      
     freq (   9-   9) =         40.1  [cm-1]   --> B_2  D_4  S_4      
     freq (  10-  10) =         41.6  [cm-1]   --> A_1  D_1  S_1      
     freq (  11-  11) =         43.2  [cm-1]   --> A_1  D_1  S_1      
     freq (  12-  12) =         46.2  [cm-1]   --> B_1  D_3  S_3      
     freq (  13-  13) =         49.2  [cm-1]   --> A_2  D_2  S_2      
     freq (  14-  14) =         50.5  [cm-1]   --> B_1  D_3  S_3      
     freq (  15-  15) =         51.1  [cm-1]   --> A_1  D_1  S_1      
     freq (  16-  16) =         54.8  [cm-1]   --> A_2  D_2  S_2      
     freq (  17-  17) =         56.0  [cm-1]   --> A_1  D_1  S_1      
     freq (  18-  18) =         56.5  [cm-1]   --> B_2  D_4  S_4      
     freq (  19-  19) =         59.9  [cm-1]   --> A_2  D_2  S_2      
     freq (  20-  20) =         61.1  [cm-1]   --> A_1  D_1  S_1      
     freq (  21-  21) =         62.4  [cm-1]   --> B_1  D_3  S_3      
     freq (  22-  22) =         68.7  [cm-1]   --> A_1  D_1  S_1      
     freq (  23-  23) =         73.3  [cm-1]   --> A_1  D_1  S_1      
     freq (  24-  24) =         83.9  [cm-1]   --> B_1  D_3  S_3      
     freq (  25-  25) =         89.1  [cm-1]   --> A_2  D_2  S_2      
     freq (  26-  26) =         89.4  [cm-1]   --> B_2  D_4  S_4      
     freq (  27-  27) =         98.3  [cm-1]   --> B_1  D_3  S_3      
     freq (  28-  28) =        100.3  [cm-1]   --> A_1  D_1  S_1      
     freq (  29-  29) =        101.0  [cm-1]   --> B_1  D_3  S_3      
     freq (  30-  30) =        110.8  [cm-1]   --> B_1  D_3  S_3      
     freq (  31-  31) =        113.1  [cm-1]   --> A_1  D_1  S_1      
     freq (  32-  32) =        115.4  [cm-1]   --> B_2  D_4  S_4      
     freq (  33-  33) =        115.6  [cm-1]   --> A_2  D_2  S_2      
     freq (  34-  34) =        116.9  [cm-1]   --> B_2  D_4  S_4      
     freq (  35-  35) =        118.8  [cm-1]   --> A_2  D_2  S_2      
     freq (  36-  36) =        120.6  [cm-1]   --> B_1  D_3  S_3      
     freq (  37-  37) =        130.4  [cm-1]   --> A_1  D_1  S_1      
     freq (  38-  38) =        133.5  [cm-1]   --> B_1  D_3  S_3      
     freq (  39-  39) =        133.8  [cm-1]   --> B_2  D_4  S_4      
     freq (  40-  40) =        134.9  [cm-1]   --> A_1  D_1  S_1      
     freq (  41-  41) =        140.2  [cm-1]   --> A_1  D_1  S_1      
     freq (  42-  42) =        143.7  [cm-1]   --> B_2  D_4  S_4      
     freq (  43-  43) =        159.9  [cm-1]   --> A_2  D_2  S_2      
     freq (  44-  44) =        165.0  [cm-1]   --> A_2  D_2  S_2      
     freq (  45-  45) =        180.0  [cm-1]   --> B_1  D_3  S_3      
     freq (  46-  46) =        189.1  [cm-1]   --> A_1  D_1  S_1      
     freq (  47-  47) =        213.6  [cm-1]   --> A_2  D_2  S_2      
     freq (  48-  48) =        215.2  [cm-1]   --> B_2  D_4  S_4      
     freq (  49-  49) =        221.6  [cm-1]   --> A_2  D_2  S_2      
     freq (  50-  50) =        222.2  [cm-1]   --> B_2  D_4  S_4      
     freq (  51-  51) =        278.4  [cm-1]   --> A_2  D_2  S_2      
     freq (  52-  52) =        286.9  [cm-1]   --> A_2  D_2  S_2      
     freq (  53-  53) =        301.6  [cm-1]   --> B_2  D_4  S_4      
     freq (  54-  54) =        307.6  [cm-1]   --> B_2  D_4  S_4      
     freq (  55-  55) =        320.4  [cm-1]   --> B_1  D_3  S_3      
     freq (  56-  56) =        321.2  [cm-1]   --> A_1  D_1  S_1      
     freq (  57-  57) =        377.6  [cm-1]   --> B_1  D_3  S_3      
     freq (  58-  58) =        378.0  [cm-1]   --> A_1  D_1  S_1      
     freq (  59-  59) =        472.4  [cm-1]   --> B_1  D_3  S_3      
     freq (  60-  60) =        474.8  [cm-1]   --> A_1  D_1  S_1      
     freq (  61-  61) =        758.4  [cm-1]   --> B_2  D_4  S_4      
     freq (  62-  62) =        759.0  [cm-1]   --> A_2  D_2  S_2      
     freq (  63-  63) =        826.6  [cm-1]   --> B_2  D_4  S_4      
     freq (  64-  64) =        828.1  [cm-1]   --> A_2  D_2  S_2      
     freq (  65-  65) =        879.5  [cm-1]   --> B_2  D_4  S_4      
     freq (  66-  66) =        883.6  [cm-1]   --> A_2  D_2  S_2      
     freq (  67-  67) =        905.4  [cm-1]   --> B_1  D_3  S_3      
     freq (  68-  68) =        907.2  [cm-1]   --> A_1  D_1  S_1      
     freq (  69-  69) =        958.6  [cm-1]   --> A_1  D_1  S_1      
     freq (  70-  70) =        960.5  [cm-1]   --> B_1  D_3  S_3      
     freq (  71-  71) =       1001.7  [cm-1]   --> A_1  D_1  S_1      
     freq (  72-  72) =       1002.6  [cm-1]   --> B_1  D_3  S_3      
     freq (  73-  73) =       1022.2  [cm-1]   --> B_2  D_4  S_4      
     freq (  74-  74) =       1022.8  [cm-1]   --> A_2  D_2  S_2      
     freq (  75-  75) =       1037.8  [cm-1]   --> B_1  D_3  S_3      
     freq (  76-  76) =       1039.9  [cm-1]   --> A_1  D_1  S_1      
     freq (  77-  77) =       1052.3  [cm-1]   --> B_1  D_3  S_3      
     freq (  78-  78) =       1053.7  [cm-1]   --> A_1  D_1  S_1      
     freq (  79-  79) =       1088.5  [cm-1]   --> B_2  D_4  S_4      
     freq (  80-  80) =       1095.9  [cm-1]   --> A_2  D_2  S_2      
     freq (  81-  81) =       1129.2  [cm-1]   --> A_1  D_1  S_1      
     freq (  82-  82) =       1131.1  [cm-1]   --> B_1  D_3  S_3      
     freq (  83-  83) =       1185.7  [cm-1]   --> A_1  D_1  S_1      
     freq (  84-  84) =       1191.2  [cm-1]   --> B_1  D_3  S_3      
     freq (  85-  85) =       1228.1  [cm-1]   --> A_2  D_2  S_2      
     freq (  86-  86) =       1229.2  [cm-1]   --> B_2  D_4  S_4      
     freq (  87-  87) =       1293.3  [cm-1]   --> B_2  D_4  S_4      
     freq (  88-  88) =       1296.3  [cm-1]   --> A_2  D_2  S_2      
     freq (  89-  89) =       1313.4  [cm-1]   --> A_1  D_1  S_1      
     freq (  90-  90) =       1313.9  [cm-1]   --> B_1  D_3  S_3      
     freq (  91-  91) =       1319.2  [cm-1]   --> A_2  D_2  S_2      
     freq (  92-  92) =       1319.2  [cm-1]   --> B_2  D_4  S_4      
     freq (  93-  93) =       1388.6  [cm-1]   --> A_1  D_1  S_1      
     freq (  94-  94) =       1389.0  [cm-1]   --> B_1  D_3  S_3      
     freq (  95-  95) =       1394.9  [cm-1]   --> B_2  D_4  S_4      
     freq (  96-  96) =       1396.9  [cm-1]   --> A_2  D_2  S_2      
     freq (  97-  97) =       1403.1  [cm-1]   --> B_1  D_3  S_3      
     freq (  98-  98) =       1405.5  [cm-1]   --> A_1  D_1  S_1      
     freq (  99-  99) =       1411.1  [cm-1]   --> B_1  D_3  S_3      
     freq ( 100- 100) =       1411.6  [cm-1]   --> A_1  D_1  S_1      
     freq ( 101- 101) =       1414.3  [cm-1]   --> B_2  D_4  S_4      
     freq ( 102- 102) =       1418.1  [cm-1]   --> A_2  D_2  S_2      
     freq ( 103- 103) =       1426.5  [cm-1]   --> B_1  D_3  S_3      
     freq ( 104- 104) =       1426.9  [cm-1]   --> A_1  D_1  S_1      
     freq ( 105- 105) =       1432.8  [cm-1]   --> A_1  D_1  S_1      
     freq ( 106- 106) =       1434.5  [cm-1]   --> B_1  D_3  S_3      
     freq ( 107- 107) =       1436.8  [cm-1]   --> A_1  D_1  S_1      
     freq ( 108- 108) =       1438.1  [cm-1]   --> B_1  D_3  S_3      
     freq ( 109- 109) =       1444.5  [cm-1]   --> B_1  D_3  S_3      
     freq ( 110- 110) =       1447.8  [cm-1]   --> A_1  D_1  S_1      
     freq ( 111- 111) =       1453.2  [cm-1]   --> B_2  D_4  S_4      
     freq ( 112- 112) =       1454.9  [cm-1]   --> B_1  D_3  S_3      
     freq ( 113- 113) =       1455.5  [cm-1]   --> B_2  D_4  S_4      
     freq ( 114- 114) =       1460.9  [cm-1]   --> A_1  D_1  S_1      
     freq ( 115- 115) =       1470.6  [cm-1]   --> B_1  D_3  S_3      
     freq ( 116- 116) =       1475.9  [cm-1]   --> A_1  D_1  S_1      
     freq ( 117- 117) =       1477.5  [cm-1]   --> A_2  D_2  S_2      
     freq ( 118- 118) =       1482.7  [cm-1]   --> A_2  D_2  S_2      
     freq ( 119- 119) =       1542.1  [cm-1]   --> A_1  D_1  S_1      
     freq ( 120- 120) =       1543.5  [cm-1]   --> A_1  D_1  S_1      
     freq ( 121- 121) =       1547.9  [cm-1]   --> B_1  D_3  S_3      
     freq ( 122- 122) =       1553.5  [cm-1]   --> B_1  D_3  S_3      
     freq ( 123- 123) =       2956.3  [cm-1]   --> B_1  D_3  S_3      
     freq ( 124- 124) =       2960.3  [cm-1]   --> A_1  D_1  S_1      
     freq ( 125- 125) =       2962.7  [cm-1]   --> B_1  D_3  S_3      
     freq ( 126- 126) =       2967.1  [cm-1]   --> A_1  D_1  S_1      
     freq ( 127- 127) =       2972.6  [cm-1]   --> B_2  D_4  S_4      
     freq ( 128- 128) =       2972.9  [cm-1]   --> A_2  D_2  S_2      
     freq ( 129- 129) =       2973.2  [cm-1]   --> B_2  D_4  S_4      
     freq ( 130- 130) =       2973.5  [cm-1]   --> A_2  D_2  S_2      
     freq ( 131- 131) =       2976.9  [cm-1]   --> A_1  D_1  S_1      
     freq ( 132- 132) =       2977.1  [cm-1]   --> B_1  D_3  S_3      
     freq ( 133- 133) =       2984.7  [cm-1]   --> B_1  D_3  S_3      
     freq ( 134- 134) =       2986.6  [cm-1]   --> A_1  D_1  S_1      
     freq ( 135- 135) =       3012.1  [cm-1]   --> A_1  D_1  S_1      
     freq ( 136- 136) =       3014.6  [cm-1]   --> B_1  D_3  S_3      
     freq ( 137- 137) =       3015.1  [cm-1]   --> B_1  D_3  S_3      
     freq ( 138- 138) =       3021.9  [cm-1]   --> A_1  D_1  S_1      
     freq ( 139- 139) =       3035.9  [cm-1]   --> B_2  D_4  S_4      
     freq ( 140- 140) =       3036.2  [cm-1]   --> A_2  D_2  S_2      
     freq ( 141- 141) =       3051.5  [cm-1]   --> B_2  D_4  S_4      
     freq ( 142- 142) =       3052.8  [cm-1]   --> A_2  D_2  S_2      
     freq ( 143- 143) =       3054.4  [cm-1]   --> A_2  D_2  S_2      
     freq ( 144- 144) =       3054.5  [cm-1]   --> B_2  D_4  S_4      
     freq ( 145- 145) =       3055.9  [cm-1]   --> B_2  D_4  S_4      
     freq ( 146- 146) =       3056.9  [cm-1]   --> A_2  D_2  S_2      
     freq ( 147- 147) =       3077.7  [cm-1]   --> B_1  D_3  S_3      
     freq ( 148- 148) =       3078.5  [cm-1]   --> A_1  D_1  S_1      
     freq ( 149- 149) =       3079.7  [cm-1]   --> B_1  D_3  S_3      
     freq ( 150- 150) =       3080.4  [cm-1]   --> A_1  D_1  S_1      
 
     init_run     :      0.90s CPU      1.16s WALL (       7 calls)
     electrons    :    359.64s CPU    363.50s WALL (       7 calls)

     Called by init_run:
     wfcinit      :      0.00s CPU      0.03s WALL (       7 calls)
     potinit      :      0.21s CPU      0.43s WALL (       7 calls)
     hinit0       :      0.25s CPU      0.26s WALL (       7 calls)

     Called by electrons:
     c_bands      :    359.64s CPU    363.50s WALL (       7 calls)
     v_of_rho     :      0.12s CPU      0.12s WALL (       8 calls)

     Called by c_bands:
     init_us_2    :     81.48s CPU     99.84s WALL (  213076 calls)
     init_us_2:cp :     80.75s CPU     99.22s WALL (  213076 calls)
     cegterg      :    325.15s CPU    328.47s WALL (     234 calls)

     Called by *egterg:
     cdiaghg      :     65.86s CPU     66.14s WALL (    3600 calls)
     h_psi        : 207919.78s CPU 210149.23s WALL ( 3203808 calls)
     g_psi        :      0.11s CPU      0.11s WALL (    3366 calls)

     Called by h_psi:
     h_psi:calbec :   6830.30s CPU   6932.36s WALL ( 3203808 calls)
     vloc_psi     : 197927.94s CPU 200026.31s WALL ( 3203808 calls)
     add_vuspsi   :   3097.17s CPU   3129.26s WALL ( 3203808 calls)

     General routines
     calbec       :  12662.79s CPU  12869.82s WALL ( 6480056 calls)
     fft          :    925.97s CPU    933.21s WALL (  335758 calls)
     ffts         :    295.92s CPU    302.44s WALL (  199500 calls)
     fftw         : 220832.13s CPU 223216.52s WALL (******** calls)
     davcio       :     90.21s CPU    121.60s WALL ( 1003328 calls)
 
     Parallel routines
     fft_scatt_xy :   6548.04s CPU   6626.72s WALL (******** calls)
     fft_scatt_yz : 202442.51s CPU 204818.58s WALL (******** calls)
 
     PHONON       :   2d21h47m CPU   2d22h53m WALL

     INITIALIZATION: 
     phq_setup    :      0.25s CPU      1.02s WALL (       8 calls)
     phq_init     :     25.27s CPU     26.04s WALL (       8 calls)
 
     phq_init     :     25.27s CPU     26.04s WALL (       8 calls)
     set_drhoc    :      0.30s CPU      0.31s WALL (      24 calls)
     init_vloc    :      0.12s CPU      0.12s WALL (       8 calls)
     init_us_1    :      0.03s CPU      0.04s WALL (       8 calls)
     init_us_2    :     81.48s CPU     99.84s WALL (  213076 calls)
 
     DYNAMICAL MATRIX:
     dynmat0      :     23.21s CPU     23.94s WALL (       8 calls)
     phqscf       : 250277.80s CPU 254264.58s WALL (       8 calls)
     dynmatrix    :      4.57s CPU      5.10s WALL (       8 calls)
 
     phqscf       : 250277.80s CPU 254264.58s WALL (       8 calls)
     solve_linter : 249774.42s CPU 253629.68s WALL (    1197 calls)
     drhodv       :    488.43s CPU    498.99s WALL (    1197 calls)
 
     dynmat0      :     23.21s CPU     23.94s WALL (       8 calls)
     dynmat_us    :     13.76s CPU     13.83s WALL (       8 calls)
     d2ionq       :      5.09s CPU      5.11s WALL (       8 calls)
     dynmatcc     :      4.09s CPU      4.11s WALL (       8 calls)
 
     dynmat_us    :     13.76s CPU     13.83s WALL (       8 calls)
 
     phqscf       : 250277.80s CPU 254264.58s WALL (       8 calls)
     solve_linter : 249774.42s CPU 253629.68s WALL (    1197 calls)
 
     solve_linter : 249774.42s CPU 253629.68s WALL (    1197 calls)
     dvqpsi_us    :   1751.43s CPU   1771.77s WALL (   19950 calls)
     sth_kernel   : 244041.09s CPU 246854.72s WALL (   11018 calls)
     apply_dpot_b :  12205.25s CPU  12368.43s WALL (  155918 calls)
     ortho        :    184.89s CPU    192.99s WALL (  174716 calls)
     cgsolve      : 218312.76s CPU 220737.78s WALL (  174716 calls)
     incdrhoscf   :  13165.39s CPU  13329.85s WALL (  174692 calls)
     dv_of_drho   :    193.69s CPU    196.70s WALL (   11067 calls)
     mix_pot      :    709.59s CPU    999.07s WALL (   11018 calls)
     psymdvscf    :   2161.67s CPU   2172.36s WALL (    9570 calls)
 
     dvqpsi_us    :   1751.43s CPU   1771.77s WALL (   19950 calls)
     dvqpsi_us_on :    137.40s CPU    138.38s WALL (   19950 calls)
 
     cgsolve      : 218312.76s CPU 220737.78s WALL (  174716 calls)
     ch_psi       : 216845.80s CPU 219248.38s WALL ( 3199974 calls)
 
     ch_psi       : 216845.80s CPU 219248.38s WALL ( 3199974 calls)
     h_psi        : 207919.78s CPU 210149.23s WALL ( 3203808 calls)
     last         :   8869.87s CPU   9043.99s WALL ( 3199974 calls)
 
     h_psi        : 207919.78s CPU 210149.23s WALL ( 3203808 calls)
     add_vuspsi   :   3097.17s CPU   3129.26s WALL ( 3203808 calls)
 
     incdrhoscf   :  13165.39s CPU  13329.85s WALL (  174692 calls)
 
 
      General routines
     calbec       :  12662.79s CPU  12869.82s WALL ( 6480056 calls)
     fft          :    925.97s CPU    933.21s WALL (  335758 calls)
     ffts         :    295.92s CPU    302.44s WALL (  199500 calls)
     fftw         : 220832.13s CPU 223216.52s WALL (******** calls)
     davcio       :     90.21s CPU    121.60s WALL ( 1003328 calls)
     write_rec    :     39.08s CPU    858.92s WALL (   12215 calls)
 
 
     PHONON       :   2d21h47m CPU   2d22h53m WALL

 
   This run was terminated on:  20:53:38  21Jun2023            

=------------------------------------------------------------------------------=
   JOB DONE.
=------------------------------------------------------------------------------=
