
     Program PWSCF v.7.1 starts on 18Jun2023 at 21:59:17 

     This program is part of the open-source Quantum ESPRESSO suite
     for quantum simulation of materials; please cite
         "P. Giannozzi et al., J. Phys.:Condens. Matter 21 395502 (2009);
         "P. Giannozzi et al., J. Phys.:Condens. Matter 29 465901 (2017);
         "P. Giannozzi et al., J. Chem. Phys. 152 154105 (2020);
          URL http://www.quantum-espresso.org", 
     in publications or presentations arising from this work. More details at
     http://www.quantum-espresso.org/quote

     Parallel version (MPI), running on   224 processors

     MPI processes distributed on     4 nodes
     136466 MiB available memory on the printing compute node when the environment starts
 
     Waiting for input...
     Reading input from standard input
Warning: card &CELL ignored
Warning: card PRESS_CONV_THR = 0.01 ignored
Warning: card / ignored

     Current dimensions of program PWSCF are:
     Max number of different atomic species (ntypx) = 10
     Max number of k-points (npk) =  40000
     Max angular momentum in pseudopotentials (lmaxx) =  4
     Message from routine setup:
     using ibrav=0 with symmetry is DISCOURAGED, use correct ibrav instead
 
     K-points division:     npool     =       7
     R & G space division:  proc/nbgrp/npool/nimage =      32
     Subspace diagonalization in iterative solution of the eigenvalue problem:
     a serial algorithm will be used

 
     Parallelization info
     --------------------
     sticks:   dense  smooth     PW     G-vecs:    dense   smooth      PW
     Min         248     248     68                 8602     8602    1251
     Max         249     249     69                 8603     8603    1253
     Sum        7953    7953   2199               275277   275277   40073
 
     Using Slab Decomposition
 


     bravais-lattice index     =            0
     lattice parameter (alat)  =      20.4126  a.u.
     unit-cell volume          =    4383.3143 (a.u.)^3
     number of atoms/cell      =           50
     number of atomic types    =            5
     number of electrons       =       164.00
     number of Kohn-Sham states=           82
     kinetic-energy cutoff     =      60.0000  Ry
     charge density cutoff     =     240.0000  Ry
     scf convergence threshold =      1.0E-12
     mixing beta               =       0.5000
     number of iterations used =            8  plain     mixing
     Exchange-correlation= PBE
                           (   1   4   3   4   0   0   0)

     celldm(1)=  20.412609  celldm(2)=   0.000000  celldm(3)=   0.000000
     celldm(4)=   0.000000  celldm(5)=   0.000000  celldm(6)=   0.000000

     crystal axes: (cart. coord. in units of alat)
               a(1) = (   0.675678   0.682145   0.279532 )  
               a(2) = (   0.675678  -0.682145   0.279532 )  
               a(3) = (   0.675678  -0.682145  -0.279532 )  

     reciprocal axes: (cart. coord. in units 2 pi/alat)
               b(1) = (  0.739998  0.732982  0.000000 )  
               b(2) = (  0.000000 -0.732982  1.788707 )  
               b(3) = (  0.739998 -0.000000 -1.788707 )  


     PseudoPot. # 1 for Pb read from file:
     /home/rkarkee/merced_home_backup/rkarkee/pseudo/Pb.upf
     MD5 check sum: 465799cf2c9ea2062203eb79f5a7a375
     Pseudo is Norm-conserving + core correction, Zval = 14.0
     Generated using ONCVPSP code by D. R. Hamann
     Using radial grid of 1678 points,  6 beta functions with: 
                l(1) =   0
                l(2) =   0
                l(3) =   1
                l(4) =   1
                l(5) =   2
                l(6) =   2

     PseudoPot. # 2 for Br read from file:
     /home/rkarkee/merced_home_backup/rkarkee/pseudo/Br.upf
     MD5 check sum: 68275ccec8d7d9019ef58dac33cdd12b
     Pseudo is Norm-conserving + core correction, Zval =  7.0
     Generated using ONCVPSP code by D. R. Hamann
     Using radial grid of 1098 points,  6 beta functions with: 
                l(1) =   0
                l(2) =   0
                l(3) =   1
                l(4) =   1
                l(5) =   2
                l(6) =   2

     PseudoPot. # 3 for C  read from file:
     /home/rkarkee/merced_home_backup/rkarkee/pseudo/C.upf
     MD5 check sum: 34a24e64c0a39f27c6c36b90a16ac686
     Pseudo is Norm-conserving + core correction, Zval =  4.0
     Generated using ONCVPSP code by D. R. Hamann
     Using radial grid of 1248 points,  4 beta functions with: 
                l(1) =   0
                l(2) =   0
                l(3) =   1
                l(4) =   1

     PseudoPot. # 4 for H  read from file:
     /home/rkarkee/merced_home_backup/rkarkee/pseudo/H.upf
     MD5 check sum: e96aa7e3e4a958db16958554ea960e2a
     Pseudo is Norm-conserving, Zval =  1.0
     Generated using ONCVPSP code by D. R. Hamann
     Using radial grid of 1166 points,  3 beta functions with: 
                l(1) =   0
                l(2) =   0
                l(3) =   1

     PseudoPot. # 5 for N  read from file:
     /home/rkarkee/merced_home_backup/rkarkee/pseudo/N.upf
     MD5 check sum: d34365f73bb0e2ee98afc20ec3e87676
     Pseudo is Norm-conserving + core correction, Zval =  5.0
     Generated using ONCVPSP code by D. R. Hamann
     Using radial grid of 1058 points,  4 beta functions with: 
                l(1) =   0
                l(2) =   0
                l(3) =   1
                l(4) =   1

     atomic species   valence    mass     pseudopotential
        Pb            14.00   207.20000     Pb( 1.00)
        Br             7.00    79.90000     Br( 1.00)
        C              4.00    12.01000     C ( 1.00)
        H              1.00     1.00800     H ( 1.00)
        N              5.00    14.01000     N ( 1.00)

      8 Sym. Ops., with inversion, found ( 4 have fractional translation)


                                    s                        frac. trans.

      isym =  1     identity                                     

 cryst.   s( 1) = (     1          0          0      )
                  (     0          1          0      )
                  (     0          0          1      )

 cart.    s( 1) = (  1.0000000 -0.0000000  0.0000000 )
                  ( -0.0000000  1.0000000 -0.0000000 )
                  ( -0.0000000  0.0000000  1.0000000 )


      isym =  2     180 deg rotation - cart. axis [0,0,1]        

 cryst.   s( 2) = (    -1          1         -1      )    f =(  0.0000000 )
                  (     0          0         -1      )       (  0.5000000 )
                  (     0         -1          0      )       (  0.5000000 )

 cart.    s( 2) = ( -1.0000000 -0.0000000  0.0000000 )    f =(  0.6756779 )
                  (  0.0000000 -1.0000000 -0.0000000 )       ( -0.6821448 )
                  (  0.0000000 -0.0000000  1.0000000 )       (  0.0000000 )


      isym =  3     180 deg rotation - cart. axis [0,1,0]        

 cryst.   s( 3) = (     0         -1          0      )
                  (    -1          0          0      )
                  (    -1          1         -1      )

 cart.    s( 3) = ( -1.0000000  0.0000000 -0.0000000 )
                  (  0.0000000  1.0000000  0.0000000 )
                  (  0.0000000  0.0000000 -1.0000000 )


      isym =  4     180 deg rotation - cart. axis [1,0,0]        

 cryst.   s( 4) = (     0          0          1      )    f =(  0.0000000 )
                  (     1         -1          1      )       (  0.5000000 )
                  (     1          0          0      )       (  0.5000000 )

 cart.    s( 4) = (  1.0000000 -0.0000000 -0.0000000 )    f =(  0.6756779 )
                  (  0.0000000 -1.0000000  0.0000000 )       ( -0.6821448 )
                  ( -0.0000000 -0.0000000 -1.0000000 )       (  0.0000000 )


      isym =  5     inversion                                    

 cryst.   s( 5) = (    -1          0          0      )
                  (     0         -1          0      )
                  (     0          0         -1      )

 cart.    s( 5) = ( -1.0000000  0.0000000 -0.0000000 )
                  (  0.0000000 -1.0000000  0.0000000 )
                  (  0.0000000 -0.0000000 -1.0000000 )


      isym =  6     inv. 180 deg rotation - cart. axis [0,0,1]   

 cryst.   s( 6) = (     1         -1          1      )    f =(  0.0000000 )
                  (     0          0          1      )       ( -0.5000000 )
                  (     0          1          0      )       (  0.5000000 )

 cart.    s( 6) = (  1.0000000  0.0000000 -0.0000000 )    f =( -0.0000000 )
                  ( -0.0000000  1.0000000  0.0000000 )       (  0.0000000 )
                  ( -0.0000000  0.0000000 -1.0000000 )       ( -0.2795316 )


      isym =  7     inv. 180 deg rotation - cart. axis [0,1,0]   

 cryst.   s( 7) = (     0          1          0      )
                  (     1          0          0      )
                  (     1         -1          1      )

 cart.    s( 7) = (  1.0000000 -0.0000000  0.0000000 )
                  ( -0.0000000 -1.0000000 -0.0000000 )
                  ( -0.0000000 -0.0000000  1.0000000 )


      isym =  8     inv. 180 deg rotation - cart. axis [1,0,0]   

 cryst.   s( 8) = (     0          0         -1      )    f =(  0.0000000 )
                  (    -1          1         -1      )       (  0.5000000 )
                  (    -1          0          0      )       (  0.5000000 )

 cart.    s( 8) = ( -1.0000000  0.0000000  0.0000000 )    f =(  0.6756779 )
                  ( -0.0000000  1.0000000 -0.0000000 )       ( -0.6821448 )
                  (  0.0000000  0.0000000  1.0000000 )       (  0.0000000 )


   Cartesian axes

     site n.     atom                  positions (alat units)
         1           Pb  tau(   1) = (   1.5069568  -0.6821448   0.1397658  )
         2           Pb  tau(   2) = (   0.5200767  -0.0000000   0.1397658  )
         3           Br  tau(   3) = (   0.5382563   0.2793638   0.1397658  )
         4           Br  tau(   4) = (   0.5382563  -0.2793638   0.1397658  )
         5           Br  tau(   5) = (   1.4887773  -0.9615086   0.1397658  )
         6           Br  tau(   6) = (   1.4887773  -0.4027810   0.1397658  )
         7           Br  tau(   7) = (   1.2066010  -0.6821448   0.1397658  )
         8           Br  tau(   8) = (   0.8204326   0.0000000   0.1397658  )
         9           Br  tau(   9) = (   1.0998823  -0.0000000   0.4192973  )
        10           Br  tau(  10) = (   0.9271513  -0.6821448  -0.1397658  )
        11           C   tau(  11) = (   1.0430767  -0.2771848   0.1397658  )
        12           C   tau(  12) = (   1.0430767   0.2771848   0.1397658  )
        13           C   tau(  13) = (   0.9839569  -0.4049600   0.1397658  )
        14           C   tau(  14) = (   0.9839569  -0.9593296   0.1397658  )
        15           C   tau(  15) = (   1.2433327  -0.1667850   0.1397658  )
        16           C   tau(  16) = (   0.5676549  -0.5153598  -0.1397658  )
        17           C   tau(  17) = (   0.7837008  -0.5153598   0.1397658  )
        18           C   tau(  18) = (   1.4593787  -0.1667850   0.4192973  )
        19           H   tau(  19) = (   1.0098022  -0.4578009   0.0569489  )
        20           H   tau(  20) = (   0.3341243  -0.2243440  -0.0569489  )
        21           H   tau(  21) = (   1.0172314  -0.2243440   0.0569489  )
        22           H   tau(  22) = (   1.0172314   0.2243440   0.2225827  )
        23           H   tau(  23) = (   1.0172314  -0.2243440   0.2225827  )
        24           H   tau(  24) = (   1.6929092  -0.4578009   0.3364804  )
        25           H   tau(  25) = (   1.0098022  -0.4578009   0.2225827  )
        26           H   tau(  26) = (   1.0098022  -0.9064888   0.0569489  )
        27           H   tau(  27) = (   1.3433728  -0.1822476   0.1397658  )
        28           H   tau(  28) = (   0.6676950  -0.4998972  -0.1397658  )
        29           H   tau(  29) = (   0.6836608  -0.4998972   0.1397658  )
        30           H   tau(  30) = (   1.3593386  -0.1822476   0.4192973  )
        31           H   tau(  31) = (   0.8125536  -0.5657262   0.2229340  )
        32           H   tau(  32) = (   0.8125536  -0.7985634   0.0565975  )
        33           H   tau(  33) = (   1.2144800  -0.1164186   0.2229340  )
        34           H   tau(  34) = (   1.2144800   0.1164186   0.0565975  )
        35           H   tau(  35) = (   1.2144800  -0.1164186   0.0565975  )
        36           H   tau(  36) = (   1.2144800   0.1164186   0.2229340  )
        37           H   tau(  37) = (   0.8125536  -0.5657262   0.0565975  )
        38           H   tau(  38) = (   0.8125536  -0.7985634   0.2229340  )
        39           H   tau(  39) = (   0.8195413  -0.3431038   0.0611649  )
        40           H   tau(  40) = (   0.8195413   0.3431038   0.2183666  )
        41           H   tau(  41) = (   1.2074922  -0.3390410   0.0611649  )
        42           H   tau(  42) = (   0.5318144  -0.3431038  -0.0611649  )
        43           H   tau(  43) = (   1.2074922  -0.3390410   0.2183666  )
        44           H   tau(  44) = (   1.2074922  -1.0252487   0.0611649  )
        45           H   tau(  45) = (   0.8195413  -0.3431038   0.2183666  )
        46           H   tau(  46) = (   1.4952192  -0.3390410   0.3406965  )
        47           N   tau(  47) = (   1.1803945  -0.2893393   0.1397658  )
        48           N   tau(  48) = (   0.5047166  -0.3928055  -0.1397658  )
        49           N   tau(  49) = (   0.8466391  -0.3928055   0.1397658  )
        50           N   tau(  50) = (   1.5223170  -0.2893393   0.4192973  )

   Crystallographic axes

     site n.     atom                  positions (cryst. coord.)
         1           Pb  tau(   1) = (  0.6151445  0.7500000  0.8651445  )
         2           Pb  tau(   2) = (  0.3848555  0.2500000  0.1348555  )
         3           Br  tau(   3) = (  0.6030770  0.0452313  0.1483084  )
         4           Br  tau(   4) = (  0.1935397  0.4547687  0.1483084  )
         5           Br  tau(   5) = (  0.3969230  0.9547687  0.8516916  )
         6           Br  tau(   6) = (  0.8064603  0.5452313  0.8516916  )
         7           Br  tau(   7) = (  0.3928819  0.7500000  0.6428819  )
         8           Br  tau(   8) = (  0.6071181  0.2500000  0.3571181  )
         9           Br  tau(   9) = (  0.8139103  0.7500000  0.0639103  )
        10           Br  tau(  10) = (  0.1860897  0.2500000  0.9360897  )
        11           C   tau(  11) = (  0.5687028  0.4531715  0.5218743  )
        12           C   tau(  12) = (  0.9750458  0.0468285  0.5218743  )
        13           C   tau(  13) = (  0.4312972  0.5468285  0.4781257  )
        14           C   tau(  14) = (  0.0249542  0.9531715  0.4781257  )
        15           C   tau(  15) = (  0.7978128  0.3722505  0.6700632  )
        16           C   tau(  16) = (  0.0423137  0.1277496  0.6700632  )
        17           C   tau(  17) = (  0.2021872  0.6277496  0.3299368  )
        18           C   tau(  18) = (  0.9576863  0.8722505  0.3299368  )
        19           H   tau(  19) = (  0.4116913  0.4374247  0.6453864  )
        20           H   tau(  20) = (  0.0828111  0.0625753  0.3491160  )
        21           H   tau(  21) = (  0.5883087  0.2663050  0.6508840  )
        22           H   tau(  22) = (  0.9171889  0.2336950  0.3546136  )
        23           H   tau(  23) = (  0.5883087  0.5625753  0.3546136  )
        24           H   tau(  24) = (  0.9171889  0.9374247  0.6508840  )
        25           H   tau(  25) = (  0.4116913  0.7336950  0.3491160  )
        26           H   tau(  26) = (  0.0828111  0.7663050  0.6453864  )
        27           H   tau(  27) = (  0.8605084  0.3835843  0.7440927  )
        28           H   tau(  28) = (  0.1276769  0.1164157  0.7440927  )
        29           H   tau(  29) = (  0.1394916  0.6164157  0.2559073  )
        30           H   tau(  30) = (  0.8723231  0.8835843  0.2559073  )
        31           H   tau(  31) = (  0.1866205  0.8134308  0.2025241  )
        32           H   tau(  32) = (  0.0159549  0.6865692  0.5000513  )
        33           H   tau(  33) = (  0.8133795  0.4840964  0.4999487  )
        34           H   tau(  34) = (  0.9840451  0.0159036  0.7974759  )
        35           H   tau(  35) = (  0.8133795  0.1865692  0.7974759  )
        36           H   tau(  36) = (  0.9840451  0.3134308  0.4999487  )
        37           H   tau(  37) = (  0.1866205  0.5159036  0.5000513  )
        38           H   tau(  38) = (  0.0159549  0.9840964  0.2025241  )
        39           H   tau(  39) = (  0.3549696  0.3608951  0.4970525  )
        40           H   tau(  40) = (  0.8579476  0.1391049  0.2158647  )
        41           H   tau(  41) = (  0.6450304  0.3579171  0.7841353  )
        42           H   tau(  42) = (  0.1420524  0.1420829  0.5029475  )
        43           H   tau(  43) = (  0.6450304  0.6391049  0.5029475  )
        44           H   tau(  44) = (  0.1420524  0.8608951  0.7841353  )
        45           H   tau(  45) = (  0.3549696  0.6420829  0.2158647  )
        46           H   tau(  46) = (  0.8579476  0.8579171  0.4970525  )
        47           N   tau(  47) = (  0.6614085  0.4620806  0.6234891  )
        48           N   tau(  48) = (  0.0855696  0.0379194  0.6234891  )
        49           N   tau(  49) = (  0.3385915  0.5379194  0.3765109  )
        50           N   tau(  50) = (  0.9144304  0.9620806  0.3765109  )

     number of k points=     8
                       cart. coord. in units 2pi/alat
        k(    1) = (   0.2466659  -0.0000000  -0.0000000), wk =   0.1481481
        k(    2) = (  -0.2466659   0.0000000   1.1924712), wk =   0.2962963
        k(    3) = (  -0.0000000  -0.0000000   0.5962356), wk =   0.1481481
        k(    4) = (   0.2466659   0.4886548  -1.1924712), wk =   0.5925926
        k(    5) = (  -0.2466659   0.4886548   0.0000000), wk =   0.2962963
        k(    6) = (  -0.0000000   0.4886548  -0.5962356), wk =   0.2962963
        k(    7) = (  -0.0000000   0.2443274  -0.0000000), wk =   0.1481481
        k(    8) = (  -0.7399976   0.0000000   0.0000000), wk =   0.0740741

                       cryst. coord.
        k(    1) = (   0.1666667   0.1666667   0.1666667), wk =   0.1481481
        k(    2) = (   0.1666667   0.1666667  -0.5000000), wk =   0.2962963
        k(    3) = (   0.1666667   0.1666667  -0.1666667), wk =   0.1481481
        k(    4) = (   0.1666667  -0.5000000   0.1666667), wk =   0.5925926
        k(    5) = (   0.1666667  -0.5000000  -0.5000000), wk =   0.2962963
        k(    6) = (   0.1666667  -0.5000000  -0.1666667), wk =   0.2962963
        k(    7) = (   0.1666667  -0.1666667  -0.1666667), wk =   0.1481481
        k(    8) = (  -0.5000000  -0.5000000  -0.5000000), wk =   0.0740741

     Dense  grid:   275277 G-vectors     FFT dimensions: ( 108, 108, 108)

     Dynamical RAM for                 wfc:       1.35 MB

     Dynamical RAM for     wfc (w. buffer):       4.04 MB

     Dynamical RAM for           str. fact:       0.66 MB

     Dynamical RAM for           local pot:       0.00 MB

     Dynamical RAM for          nlocal pot:       6.82 MB

     Dynamical RAM for                qrad:       6.22 MB

     Dynamical RAM for          rho,v,vnew:       1.46 MB

     Dynamical RAM for               rhoin:       0.49 MB

     Dynamical RAM for            rho*nmix:       2.10 MB

     Dynamical RAM for           G-vectors:       0.56 MB

     Dynamical RAM for          h,s,v(r/c):       1.23 MB

     Dynamical RAM for          <psi|beta>:       0.52 MB

     Dynamical RAM for                 psi:       2.69 MB

     Dynamical RAM for                hpsi:       2.69 MB

     Dynamical RAM for      wfcinit/wfcrot:       4.50 MB

     Estimated static dynamical RAM per process >      22.81 MB

     Estimated max dynamical RAM per process >      32.04 MB

     Estimated total dynamical RAM >       6.62 GB

     Initial potential from superposition of free atoms

     starting charge     163.9949, renormalised to     164.0000
     Starting wfcs are  126 randomized atomic wfcs

     total cpu time spent up to now is        1.8 secs

     Self-consistent Calculation

     iteration #  1     ecut=    60.00 Ry     beta= 0.50
     Davidson diagonalization with overlap

---- Real-time Memory Report at c_bands before calling an iterative solver
           317 MiB given to the printing process from OS
             0 MiB allocation reported by mallinfo(arena+hblkhd)
        133464 MiB available memory on the node where the printing process lives
------------------
     ethr =  1.00E-02,  avg # of iterations =  2.0

     total cpu time spent up to now is        2.7 secs

     total energy              =    -746.15836503 Ry
     estimated scf accuracy    <       3.09193364 Ry

     iteration #  2     ecut=    60.00 Ry     beta= 0.50
     Davidson diagonalization with overlap

---- Real-time Memory Report at c_bands before calling an iterative solver
           326 MiB given to the printing process from OS
             0 MiB allocation reported by mallinfo(arena+hblkhd)
        133274 MiB available memory on the node where the printing process lives
------------------
     ethr =  1.89E-03,  avg # of iterations =  2.0

     total cpu time spent up to now is        3.3 secs

     total energy              =    -746.60541958 Ry
     estimated scf accuracy    <       0.28887745 Ry

     iteration #  3     ecut=    60.00 Ry     beta= 0.50
     Davidson diagonalization with overlap

---- Real-time Memory Report at c_bands before calling an iterative solver
           337 MiB given to the printing process from OS
             0 MiB allocation reported by mallinfo(arena+hblkhd)
        133153 MiB available memory on the node where the printing process lives
------------------
     ethr =  1.76E-04,  avg # of iterations =  2.0

     total cpu time spent up to now is        3.9 secs

     total energy              =    -746.61806089 Ry
     estimated scf accuracy    <       0.05226625 Ry

     iteration #  4     ecut=    60.00 Ry     beta= 0.50
     Davidson diagonalization with overlap

---- Real-time Memory Report at c_bands before calling an iterative solver
           337 MiB given to the printing process from OS
             0 MiB allocation reported by mallinfo(arena+hblkhd)
        133140 MiB available memory on the node where the printing process lives
------------------
     ethr =  3.19E-05,  avg # of iterations =  2.0

     total cpu time spent up to now is        4.4 secs

     total energy              =    -746.62249474 Ry
     estimated scf accuracy    <       0.00328285 Ry

     iteration #  5     ecut=    60.00 Ry     beta= 0.50
     Davidson diagonalization with overlap

---- Real-time Memory Report at c_bands before calling an iterative solver
           338 MiB given to the printing process from OS
             0 MiB allocation reported by mallinfo(arena+hblkhd)
        133133 MiB available memory on the node where the printing process lives
------------------
     ethr =  2.00E-06,  avg # of iterations =  3.6

     total cpu time spent up to now is        5.1 secs

     total energy              =    -746.62307747 Ry
     estimated scf accuracy    <       0.00033084 Ry

     iteration #  6     ecut=    60.00 Ry     beta= 0.50
     Davidson diagonalization with overlap

---- Real-time Memory Report at c_bands before calling an iterative solver
           339 MiB given to the printing process from OS
             0 MiB allocation reported by mallinfo(arena+hblkhd)
        133113 MiB available memory on the node where the printing process lives
------------------
     ethr =  2.02E-07,  avg # of iterations =  4.0

     total cpu time spent up to now is        5.7 secs

     total energy              =    -746.62316905 Ry
     estimated scf accuracy    <       0.00003638 Ry

     iteration #  7     ecut=    60.00 Ry     beta= 0.50
     Davidson diagonalization with overlap

---- Real-time Memory Report at c_bands before calling an iterative solver
           339 MiB given to the printing process from OS
             0 MiB allocation reported by mallinfo(arena+hblkhd)
        133112 MiB available memory on the node where the printing process lives
------------------
     ethr =  2.22E-08,  avg # of iterations =  3.8

     total cpu time spent up to now is        6.4 secs

     total energy              =    -746.62317873 Ry
     estimated scf accuracy    <       0.00000397 Ry

     iteration #  8     ecut=    60.00 Ry     beta= 0.50
     Davidson diagonalization with overlap

---- Real-time Memory Report at c_bands before calling an iterative solver
           339 MiB given to the printing process from OS
             0 MiB allocation reported by mallinfo(arena+hblkhd)
        133103 MiB available memory on the node where the printing process lives
------------------
     ethr =  2.42E-09,  avg # of iterations =  4.0

     total cpu time spent up to now is        7.2 secs

     total energy              =    -746.62317991 Ry
     estimated scf accuracy    <       0.00000051 Ry

     iteration #  9     ecut=    60.00 Ry     beta= 0.50
     Davidson diagonalization with overlap

---- Real-time Memory Report at c_bands before calling an iterative solver
           341 MiB given to the printing process from OS
             0 MiB allocation reported by mallinfo(arena+hblkhd)
        133091 MiB available memory on the node where the printing process lives
------------------
     ethr =  3.09E-10,  avg # of iterations =  3.5

     total cpu time spent up to now is        7.9 secs

     total energy              =    -746.62318005 Ry
     estimated scf accuracy    <       0.00000005 Ry

     iteration # 10     ecut=    60.00 Ry     beta= 0.50
     Davidson diagonalization with overlap

---- Real-time Memory Report at c_bands before calling an iterative solver
           341 MiB given to the printing process from OS
             0 MiB allocation reported by mallinfo(arena+hblkhd)
        133082 MiB available memory on the node where the printing process lives
------------------
     ethr =  3.29E-11,  avg # of iterations =  4.0

     total cpu time spent up to now is        8.6 secs

     total energy              =    -746.62318006 Ry
     estimated scf accuracy    <          4.7E-09 Ry

     iteration # 11     ecut=    60.00 Ry     beta= 0.50
     Davidson diagonalization with overlap

---- Real-time Memory Report at c_bands before calling an iterative solver
           342 MiB given to the printing process from OS
             0 MiB allocation reported by mallinfo(arena+hblkhd)
        133080 MiB available memory on the node where the printing process lives
------------------
     ethr =  2.85E-12,  avg # of iterations =  3.8

     total cpu time spent up to now is        9.4 secs

     total energy              =    -746.62318007 Ry
     estimated scf accuracy    <          7.6E-10 Ry

     iteration # 12     ecut=    60.00 Ry     beta= 0.50
     Davidson diagonalization with overlap

---- Real-time Memory Report at c_bands before calling an iterative solver
           342 MiB given to the printing process from OS
             0 MiB allocation reported by mallinfo(arena+hblkhd)
        133068 MiB available memory on the node where the printing process lives
------------------
     ethr =  4.61E-13,  avg # of iterations =  4.1

     total cpu time spent up to now is       10.1 secs

     total energy              =    -746.62318007 Ry
     estimated scf accuracy    <          1.1E-10 Ry

     iteration # 13     ecut=    60.00 Ry     beta= 0.50
     Davidson diagonalization with overlap

---- Real-time Memory Report at c_bands before calling an iterative solver
           342 MiB given to the printing process from OS
             0 MiB allocation reported by mallinfo(arena+hblkhd)
        133068 MiB available memory on the node where the printing process lives
------------------
     ethr =  1.00E-13,  avg # of iterations =  3.1

     total cpu time spent up to now is       10.7 secs

     total energy              =    -746.62318007 Ry
     estimated scf accuracy    <          2.6E-11 Ry

     iteration # 14     ecut=    60.00 Ry     beta= 0.50
     Davidson diagonalization with overlap

---- Real-time Memory Report at c_bands before calling an iterative solver
           342 MiB given to the printing process from OS
             0 MiB allocation reported by mallinfo(arena+hblkhd)
        133068 MiB available memory on the node where the printing process lives
------------------
     ethr =  1.00E-13,  avg # of iterations =  1.0

     total cpu time spent up to now is       11.2 secs

     total energy              =    -746.62318007 Ry
     estimated scf accuracy    <          1.8E-12 Ry

     iteration # 15     ecut=    60.00 Ry     beta= 0.50
     Davidson diagonalization with overlap

---- Real-time Memory Report at c_bands before calling an iterative solver
           342 MiB given to the printing process from OS
             0 MiB allocation reported by mallinfo(arena+hblkhd)
        133068 MiB available memory on the node where the printing process lives
------------------
     ethr =  1.00E-13,  avg # of iterations =  1.0

     total cpu time spent up to now is       11.6 secs

     End of self-consistent calculation

          k = 0.2467-0.0000-0.0000 ( 34368 PWs)   bands (ev):

   -18.0903 -18.0818 -17.7643 -17.7579 -14.0199 -13.9868 -13.9298 -13.9274
   -13.9060 -13.8983 -13.8961 -13.8902 -13.8710 -13.8681 -12.6003 -12.5609
   -11.7858 -11.5715 -11.4241 -11.3454 -11.3200 -11.2984 -11.0887 -11.0701
   -10.6718 -10.6537 -10.0734  -9.9436  -9.3807  -9.3644  -7.7427  -7.7232
    -7.3276  -7.2759  -6.2910  -6.1851  -5.7304  -5.6340  -4.8931  -4.8529
    -4.8037  -4.7293  -4.4936  -4.2427  -4.0798  -4.0738  -3.2433  -3.0980
    -2.9470  -2.9084  -2.8837  -2.8482  -2.8220  -2.6282  -2.4431  -2.3914
    -2.2695  -2.1889  -1.3574  -0.9237  -0.7260  -0.6512  -0.2613   0.2053
     0.3515   0.3668   0.5005   0.5089   0.5979   0.6191   0.6913   0.7174
     0.7444   0.8540   0.9748   1.0659   1.0761   1.0791   1.1285   1.1704
     1.2496   1.3364

     occupation numbers 
     1.0000   1.0000   1.0000   1.0000   1.0000   1.0000   1.0000   1.0000
     1.0000   1.0000   1.0000   1.0000   1.0000   1.0000   1.0000   1.0000
     1.0000   1.0000   1.0000   1.0000   1.0000   1.0000   1.0000   1.0000
     1.0000   1.0000   1.0000   1.0000   1.0000   1.0000   1.0000   1.0000
     1.0000   1.0000   1.0000   1.0000   1.0000   1.0000   1.0000   1.0000
     1.0000   1.0000   1.0000   1.0000   1.0000   1.0000   1.0000   1.0000
     1.0000   1.0000   1.0000   1.0000   1.0000   1.0000   1.0000   1.0000
     1.0000   1.0000   1.0000   1.0000   1.0000   1.0000   1.0000   1.0000
     1.0000   1.0000   1.0000   1.0000   1.0000   1.0000   1.0000   1.0000
     1.0000   1.0000   1.0000   1.0000   1.0000   1.0000   1.0000   1.0000
     1.0000   1.0000

          k =-0.2467 0.0000 1.1925 ( 34407 PWs)   bands (ev):

   -18.0841 -18.0823 -17.7617 -17.7552 -13.9740 -13.9561 -13.9318 -13.9308
   -13.9019 -13.8983 -13.8972 -13.8942 -13.8702 -13.8688 -12.5810 -12.5761
   -11.7286 -11.5905 -11.4365 -11.4032 -11.3854 -11.3619 -11.0901 -11.0604
   -10.7538 -10.6160 -10.1013 -10.0113  -9.4169  -9.4141  -7.6027  -7.5805
    -7.1833  -7.1718  -6.2697  -6.2627  -5.7499  -5.6129  -5.2905  -5.2172
    -4.9166  -4.7624  -4.4949  -4.2545  -4.1124  -4.0739  -3.1904  -3.1460
    -3.0187  -2.9692  -2.8817  -2.8220  -2.7606  -2.6253  -2.3936  -2.3375
    -2.1568  -2.1386  -0.4948  -0.4021  -0.2240  -0.2077   0.0061   0.0269
     0.1614   0.1906   0.3309   0.4077   0.6128   0.6379   0.6474   0.7440
     0.8178   0.8340   0.9154   1.0080   1.0359   1.0738   1.1391   1.1478
     1.5002   1.6435

     occupation numbers 
     1.0000   1.0000   1.0000   1.0000   1.0000   1.0000   1.0000   1.0000
     1.0000   1.0000   1.0000   1.0000   1.0000   1.0000   1.0000   1.0000
     1.0000   1.0000   1.0000   1.0000   1.0000   1.0000   1.0000   1.0000
     1.0000   1.0000   1.0000   1.0000   1.0000   1.0000   1.0000   1.0000
     1.0000   1.0000   1.0000   1.0000   1.0000   1.0000   1.0000   1.0000
     1.0000   1.0000   1.0000   1.0000   1.0000   1.0000   1.0000   1.0000
     1.0000   1.0000   1.0000   1.0000   1.0000   1.0000   1.0000   1.0000
     1.0000   1.0000   1.0000   1.0000   1.0000   1.0000   1.0000   1.0000
     1.0000   1.0000   1.0000   1.0000   1.0000   1.0000   1.0000   1.0000
     1.0000   1.0000   1.0000   1.0000   1.0000   1.0000   1.0000   1.0000
     1.0000   1.0000

          k =-0.0000-0.0000 0.5962 ( 34432 PWs)   bands (ev):

   -18.0874 -18.0789 -17.7616 -17.7553 -13.9740 -13.9562 -13.9317 -13.9309
   -13.9019 -13.8983 -13.8972 -13.8942 -13.8702 -13.8688 -12.5987 -12.5596
   -11.7270 -11.5938 -11.4208 -11.3990 -11.3874 -11.3763 -11.0749 -11.0692
   -10.6992 -10.6819 -10.1363  -9.9737  -9.4248  -9.4041  -7.6020  -7.5794
    -7.2014  -7.1541  -6.3285  -6.2156  -5.7249  -5.6295  -5.2732  -5.2159
    -4.8500  -4.8367  -4.5167  -4.2421  -4.1051  -4.0846  -3.2648  -3.0810
    -2.9939  -2.9717  -2.9012  -2.8473  -2.7135  -2.6352  -2.3922  -2.3440
    -2.1516  -2.1451  -0.4948  -0.4537  -0.2140  -0.1468   0.0471   0.1118
     0.1161   0.1609   0.3096   0.4442   0.5658   0.6471   0.6493   0.7366
     0.7673   0.7733   0.9158   0.9561   1.0265   1.1032   1.1730   1.1763
     1.5761   1.6147

     occupation numbers 
     1.0000   1.0000   1.0000   1.0000   1.0000   1.0000   1.0000   1.0000
     1.0000   1.0000   1.0000   1.0000   1.0000   1.0000   1.0000   1.0000
     1.0000   1.0000   1.0000   1.0000   1.0000   1.0000   1.0000   1.0000
     1.0000   1.0000   1.0000   1.0000   1.0000   1.0000   1.0000   1.0000
     1.0000   1.0000   1.0000   1.0000   1.0000   1.0000   1.0000   1.0000
     1.0000   1.0000   1.0000   1.0000   1.0000   1.0000   1.0000   1.0000
     1.0000   1.0000   1.0000   1.0000   1.0000   1.0000   1.0000   1.0000
     1.0000   1.0000   1.0000   1.0000   1.0000   1.0000   1.0000   1.0000
     1.0000   1.0000   1.0000   1.0000   1.0000   1.0000   1.0000   1.0000
     1.0000   1.0000   1.0000   1.0000   1.0000   1.0000   1.0000   1.0000
     1.0000   1.0000

          k = 0.2467 0.4887-1.1925 ( 34421 PWs)   bands (ev):

   -18.0853 -18.0810 -17.7601 -17.7568 -13.9740 -13.9562 -13.9317 -13.9309
   -13.9019 -13.8983 -13.8972 -13.8942 -13.8702 -13.8688 -12.5887 -12.5691
   -11.7277 -11.5923 -11.4325 -11.4018 -11.3848 -11.3668 -11.0749 -11.0704
   -10.6970 -10.6867 -10.0930 -10.0113  -9.4200  -9.4097  -7.5970  -7.5858
    -7.1896  -7.1660  -6.2975  -6.2416  -5.7030  -5.6552  -5.2778  -5.2221
    -4.8600  -4.8481  -4.4342  -4.3004  -4.0966  -4.0859  -3.2049  -3.1277
    -3.0063  -2.9765  -2.8917  -2.8535  -2.7121  -2.6411  -2.3757  -2.3514
    -2.1495  -2.1457  -0.4965  -0.4231  -0.2193  -0.1776   0.0226   0.0548
     0.1263   0.1776   0.3336   0.4288   0.5793   0.6317   0.6920   0.7310
     0.7589   0.8377   0.9136   0.9730   1.0199   1.0946   1.1320   1.1628
     1.5658   1.6459

     occupation numbers 
     1.0000   1.0000   1.0000   1.0000   1.0000   1.0000   1.0000   1.0000
     1.0000   1.0000   1.0000   1.0000   1.0000   1.0000   1.0000   1.0000
     1.0000   1.0000   1.0000   1.0000   1.0000   1.0000   1.0000   1.0000
     1.0000   1.0000   1.0000   1.0000   1.0000   1.0000   1.0000   1.0000
     1.0000   1.0000   1.0000   1.0000   1.0000   1.0000   1.0000   1.0000
     1.0000   1.0000   1.0000   1.0000   1.0000   1.0000   1.0000   1.0000
     1.0000   1.0000   1.0000   1.0000   1.0000   1.0000   1.0000   1.0000
     1.0000   1.0000   1.0000   1.0000   1.0000   1.0000   1.0000   1.0000
     1.0000   1.0000   1.0000   1.0000   1.0000   1.0000   1.0000   1.0000
     1.0000   1.0000   1.0000   1.0000   1.0000   1.0000   1.0000   1.0000
     1.0000   1.0000

          k =-0.2467 0.4887 0.0000 ( 34387 PWs)   bands (ev):

   -18.0891 -18.0831 -17.7660 -17.7563 -14.0199 -13.9867 -13.9297 -13.9274
   -13.9060 -13.8983 -13.8961 -13.8902 -13.8710 -13.8681 -12.5873 -12.5727
   -11.7897 -11.5658 -11.4252 -11.3509 -11.3167 -11.2946 -11.1018 -11.0705
   -10.7097 -10.6033 -10.0178 -10.0004  -9.3806  -9.3661  -7.7500  -7.7166
    -7.3179  -7.2846  -6.2585  -6.2148  -5.7300  -5.6420  -4.9207  -4.8939
    -4.7708  -4.7179  -4.3974  -4.3095  -4.1096  -4.0512  -3.1913  -3.0473
    -3.0048  -2.9638  -2.8826  -2.8639  -2.8188  -2.6032  -2.4198  -2.4070
    -2.2308  -2.2210  -1.3912  -0.8955  -0.7271  -0.6193  -0.2911   0.1808
     0.3043   0.3940   0.5005   0.5550   0.5804   0.6140   0.6499   0.7272
     0.8279   0.8346   0.9466   1.0097   1.0418   1.0688   1.1444   1.1670
     1.3184   1.3786

     occupation numbers 
     1.0000   1.0000   1.0000   1.0000   1.0000   1.0000   1.0000   1.0000
     1.0000   1.0000   1.0000   1.0000   1.0000   1.0000   1.0000   1.0000
     1.0000   1.0000   1.0000   1.0000   1.0000   1.0000   1.0000   1.0000
     1.0000   1.0000   1.0000   1.0000   1.0000   1.0000   1.0000   1.0000
     1.0000   1.0000   1.0000   1.0000   1.0000   1.0000   1.0000   1.0000
     1.0000   1.0000   1.0000   1.0000   1.0000   1.0000   1.0000   1.0000
     1.0000   1.0000   1.0000   1.0000   1.0000   1.0000   1.0000   1.0000
     1.0000   1.0000   1.0000   1.0000   1.0000   1.0000   1.0000   1.0000
     1.0000   1.0000   1.0000   1.0000   1.0000   1.0000   1.0000   1.0000
     1.0000   1.0000   1.0000   1.0000   1.0000   1.0000   1.0000   1.0000
     1.0000   1.0000

          k =-0.0000 0.4887-0.5962 ( 34403 PWs)   bands (ev):

   -18.0861 -18.0801 -17.7633 -17.7536 -13.9740 -13.9561 -13.9318 -13.9308
   -13.9019 -13.8983 -13.8972 -13.8942 -13.8702 -13.8688 -12.5859 -12.5713
   -11.7286 -11.5900 -11.4347 -11.4004 -11.3825 -11.3679 -11.0952 -11.0589
   -10.7491 -10.6229 -10.0580 -10.0509  -9.4218  -9.4088  -7.6079  -7.5745
    -7.1950  -7.1598  -6.2937  -6.2456  -5.7258  -5.6371  -5.2865  -5.2105
    -4.9237  -4.7777  -4.4127  -4.3159  -4.1212  -4.0739  -3.1881  -3.1677
    -3.0192  -2.9410  -2.8992  -2.8204  -2.6908  -2.6880  -2.3761  -2.3465
    -2.1586  -2.1365  -0.4959  -0.3882  -0.2407  -0.2017  -0.0084   0.0539
     0.1384   0.1905   0.3482   0.4096   0.5509   0.6324   0.6801   0.7465
     0.8359   0.8503   0.9049   0.9569   1.0151   1.1121   1.1293   1.1427
     1.5451   1.6543

     occupation numbers 
     1.0000   1.0000   1.0000   1.0000   1.0000   1.0000   1.0000   1.0000
     1.0000   1.0000   1.0000   1.0000   1.0000   1.0000   1.0000   1.0000
     1.0000   1.0000   1.0000   1.0000   1.0000   1.0000   1.0000   1.0000
     1.0000   1.0000   1.0000   1.0000   1.0000   1.0000   1.0000   1.0000
     1.0000   1.0000   1.0000   1.0000   1.0000   1.0000   1.0000   1.0000
     1.0000   1.0000   1.0000   1.0000   1.0000   1.0000   1.0000   1.0000
     1.0000   1.0000   1.0000   1.0000   1.0000   1.0000   1.0000   1.0000
     1.0000   1.0000   1.0000   1.0000   1.0000   1.0000   1.0000   1.0000
     1.0000   1.0000   1.0000   1.0000   1.0000   1.0000   1.0000   1.0000
     1.0000   1.0000   1.0000   1.0000   1.0000   1.0000   1.0000   1.0000
     1.0000   1.0000

          k =-0.0000 0.2443-0.0000 ( 34320 PWs)   bands (ev):

   -18.0932 -18.0786 -17.7692 -17.7531 -14.0199 -13.9868 -13.9298 -13.9274
   -13.9060 -13.8983 -13.8961 -13.8902 -13.8710 -13.8681 -12.6072 -12.5534
   -11.7858 -11.5698 -11.4259 -11.3468 -11.3174 -11.2951 -11.1062 -11.0585
   -10.7226 -10.5955 -10.0813  -9.9420  -9.3878  -9.3571  -7.7578  -7.7041
    -7.3464  -7.2607  -6.3115  -6.1620  -5.6868  -5.6782  -4.8962  -4.8898
    -4.7646  -4.7449  -4.4423  -4.2811  -4.1083  -4.0440  -3.2435  -3.0859
    -2.9767  -2.9178  -2.8774  -2.8381  -2.8128  -2.6305  -2.4383  -2.3869
    -2.2713  -2.1876  -1.3541  -0.9242  -0.7364  -0.6407  -0.2634   0.2289
     0.3236   0.3372   0.5470   0.5517   0.5838   0.5994   0.6598   0.7007
     0.7516   0.8790   0.9309   1.0314   1.0454   1.0848   1.1155   1.1800
     1.3318   1.3606

     occupation numbers 
     1.0000   1.0000   1.0000   1.0000   1.0000   1.0000   1.0000   1.0000
     1.0000   1.0000   1.0000   1.0000   1.0000   1.0000   1.0000   1.0000
     1.0000   1.0000   1.0000   1.0000   1.0000   1.0000   1.0000   1.0000
     1.0000   1.0000   1.0000   1.0000   1.0000   1.0000   1.0000   1.0000
     1.0000   1.0000   1.0000   1.0000   1.0000   1.0000   1.0000   1.0000
     1.0000   1.0000   1.0000   1.0000   1.0000   1.0000   1.0000   1.0000
     1.0000   1.0000   1.0000   1.0000   1.0000   1.0000   1.0000   1.0000
     1.0000   1.0000   1.0000   1.0000   1.0000   1.0000   1.0000   1.0000
     1.0000   1.0000   1.0000   1.0000   1.0000   1.0000   1.0000   1.0000
     1.0000   1.0000   1.0000   1.0000   1.0000   1.0000   1.0000   1.0000
     1.0000   1.0000

          k =-0.7400 0.0000 0.0000 ( 34402 PWs)   bands (ev):

   -18.0920 -18.0799 -17.7710 -17.7515 -14.0199 -13.9866 -13.9297 -13.9275
   -13.9060 -13.8983 -13.8961 -13.8902 -13.8710 -13.8681 -12.5934 -12.5646
   -11.7943 -11.5579 -11.4228 -11.3511 -11.3196 -11.2924 -11.1306 -11.0608
   -10.7480 -10.5346 -10.0259 -10.0087  -9.3886  -9.3599  -7.7654  -7.6983
    -7.3360  -7.2691  -6.2731  -6.1871  -5.7789  -5.6010  -4.9741  -4.9253
    -4.7366  -4.6545  -4.4459  -4.2709  -4.1398  -4.0251  -3.1387  -3.0635
    -2.9827  -2.9686  -2.9174  -2.9153  -2.8203  -2.5783  -2.4137  -2.4045
    -2.2240  -2.2180  -1.4328  -0.8660  -0.7394  -0.6057  -0.3173   0.2184
     0.2360   0.4122   0.5452   0.5717   0.5859   0.6459   0.6974   0.7793
     0.7822   0.7911   0.9003   1.0403   1.0459   1.0528   1.1782   1.1876
     1.2226   1.3550

     occupation numbers 
     1.0000   1.0000   1.0000   1.0000   1.0000   1.0000   1.0000   1.0000
     1.0000   1.0000   1.0000   1.0000   1.0000   1.0000   1.0000   1.0000
     1.0000   1.0000   1.0000   1.0000   1.0000   1.0000   1.0000   1.0000
     1.0000   1.0000   1.0000   1.0000   1.0000   1.0000   1.0000   1.0000
     1.0000   1.0000   1.0000   1.0000   1.0000   1.0000   1.0000   1.0000
     1.0000   1.0000   1.0000   1.0000   1.0000   1.0000   1.0000   1.0000
     1.0000   1.0000   1.0000   1.0000   1.0000   1.0000   1.0000   1.0000
     1.0000   1.0000   1.0000   1.0000   1.0000   1.0000   1.0000   1.0000
     1.0000   1.0000   1.0000   1.0000   1.0000   1.0000   1.0000   1.0000
     1.0000   1.0000   1.0000   1.0000   1.0000   1.0000   1.0000   1.0000
     1.0000   1.0000

     highest occupied level (ev):     1.6543

!    total energy              =    -746.62318007 Ry
     estimated scf accuracy    <          9.1E-13 Ry

     The total energy is the sum of the following terms:
     one-electron contribution =    -324.72609678 Ry
     hartree contribution      =     223.07869168 Ry
     xc contribution           =    -241.75210583 Ry
     ewald contribution        =    -403.22366913 Ry

     convergence has been achieved in  15 iterations

     Forces acting on atoms (cartesian axes, Ry/au):

     atom    1 type  1   force =    -0.00001144    0.00000000    0.00000000
     atom    2 type  1   force =     0.00001144   -0.00000000   -0.00000000
     atom    3 type  2   force =     0.00000607    0.00001195   -0.00000000
     atom    4 type  2   force =     0.00000607   -0.00001195    0.00000000
     atom    5 type  2   force =    -0.00000607   -0.00001195    0.00000000
     atom    6 type  2   force =    -0.00000607    0.00001195   -0.00000000
     atom    7 type  2   force =     0.00000943   -0.00000000   -0.00000000
     atom    8 type  2   force =    -0.00000943    0.00000000    0.00000000
     atom    9 type  2   force =    -0.00001014    0.00000000   -0.00000000
     atom   10 type  2   force =     0.00001014   -0.00000000    0.00000000
     atom   11 type  3   force =    -0.00000766   -0.00000079   -0.00000000
     atom   12 type  3   force =    -0.00000766    0.00000079    0.00000000
     atom   13 type  3   force =     0.00000766    0.00000079    0.00000000
     atom   14 type  3   force =     0.00000766   -0.00000079   -0.00000000
     atom   15 type  3   force =    -0.00000565    0.00000328   -0.00000000
     atom   16 type  3   force =    -0.00000565   -0.00000328    0.00000000
     atom   17 type  3   force =     0.00000565   -0.00000328    0.00000000
     atom   18 type  3   force =     0.00000565    0.00000328   -0.00000000
     atom   19 type  4   force =     0.00000842   -0.00000841   -0.00000291
     atom   20 type  4   force =     0.00000842    0.00000841    0.00000291
     atom   21 type  4   force =    -0.00000842    0.00000841   -0.00000291
     atom   22 type  4   force =    -0.00000842   -0.00000841    0.00000291
     atom   23 type  4   force =    -0.00000842    0.00000841    0.00000291
     atom   24 type  4   force =    -0.00000842   -0.00000841   -0.00000291
     atom   25 type  4   force =     0.00000842   -0.00000841    0.00000291
     atom   26 type  4   force =     0.00000842    0.00000841   -0.00000291
     atom   27 type  4   force =    -0.00000714   -0.00001202   -0.00000000
     atom   28 type  4   force =    -0.00000714    0.00001202    0.00000000
     atom   29 type  4   force =     0.00000714    0.00001202    0.00000000
     atom   30 type  4   force =     0.00000714   -0.00001202   -0.00000000
     atom   31 type  4   force =     0.00001548   -0.00000602    0.00000683
     atom   32 type  4   force =     0.00001548    0.00000602   -0.00000683
     atom   33 type  4   force =    -0.00001548    0.00000602    0.00000683
     atom   34 type  4   force =    -0.00001548   -0.00000602   -0.00000683
     atom   35 type  4   force =    -0.00001548    0.00000602   -0.00000683
     atom   36 type  4   force =    -0.00001548   -0.00000602    0.00000683
     atom   37 type  4   force =     0.00001548   -0.00000602   -0.00000683
     atom   38 type  4   force =     0.00001548    0.00000602    0.00000683
     atom   39 type  4   force =     0.00000229    0.00001053   -0.00000557
     atom   40 type  4   force =     0.00000229   -0.00001053    0.00000557
     atom   41 type  4   force =    -0.00000229   -0.00001053   -0.00000557
     atom   42 type  4   force =    -0.00000229    0.00001053    0.00000557
     atom   43 type  4   force =    -0.00000229   -0.00001053    0.00000557
     atom   44 type  4   force =    -0.00000229    0.00001053   -0.00000557
     atom   45 type  4   force =     0.00000229    0.00001053    0.00000557
     atom   46 type  4   force =     0.00000229   -0.00001053   -0.00000557
     atom   47 type  5   force =     0.00000450   -0.00000121   -0.00000000
     atom   48 type  5   force =     0.00000450    0.00000121    0.00000000
     atom   49 type  5   force =    -0.00000450    0.00000121    0.00000000
     atom   50 type  5   force =    -0.00000450   -0.00000121   -0.00000000
     The non-local contrib.  to forces
     atom    1 type  1   force =     0.10000433   -0.00000000    0.00000000
     atom    2 type  1   force =    -0.10000433    0.00000000   -0.00000000
     atom    3 type  2   force =    -0.00113554   -0.02779761   -0.00000000
     atom    4 type  2   force =    -0.00113554    0.02779761   -0.00000000
     atom    5 type  2   force =     0.00113554    0.02779761    0.00000000
     atom    6 type  2   force =     0.00113554   -0.02779761    0.00000000
     atom    7 type  2   force =     0.03351927   -0.00000000    0.00000000
     atom    8 type  2   force =    -0.03351927    0.00000000   -0.00000000
     atom    9 type  2   force =    -0.07142260    0.00000000    0.00000000
     atom   10 type  2   force =     0.07142260   -0.00000000   -0.00000000
     atom   11 type  3   force =     0.33851097   -0.14850808   -0.00000000
     atom   12 type  3   force =     0.33851097    0.14850808    0.00000000
     atom   13 type  3   force =    -0.33851097    0.14850808    0.00000000
     atom   14 type  3   force =    -0.33851097   -0.14850808   -0.00000000
     atom   15 type  3   force =    -0.17420461   -0.36607202    0.00000000
     atom   16 type  3   force =    -0.17420461    0.36607202    0.00000000
     atom   17 type  3   force =     0.17420461    0.36607202   -0.00000000
     atom   18 type  3   force =     0.17420461   -0.36607202   -0.00000000
     atom   19 type  4   force =    -0.03976830    0.07885596    0.12096741
     atom   20 type  4   force =    -0.03976830   -0.07885596   -0.12096741
     atom   21 type  4   force =     0.03976830   -0.07885596    0.12096741
     atom   22 type  4   force =     0.03976830    0.07885596   -0.12096741
     atom   23 type  4   force =     0.03976830   -0.07885596   -0.12096741
     atom   24 type  4   force =     0.03976830    0.07885596    0.12096741
     atom   25 type  4   force =    -0.03976830    0.07885596   -0.12096741
     atom   26 type  4   force =    -0.03976830   -0.07885596    0.12096741
     atom   27 type  4   force =    -0.14776863    0.02026586   -0.00000000
     atom   28 type  4   force =    -0.14776863   -0.02026586    0.00000000
     atom   29 type  4   force =     0.14776863   -0.02026586    0.00000000
     atom   30 type  4   force =     0.14776863    0.02026586   -0.00000000
     atom   31 type  4   force =    -0.04122498    0.07605552   -0.12107009
     atom   32 type  4   force =    -0.04122498   -0.07605552    0.12107009
     atom   33 type  4   force =     0.04122498   -0.07605552   -0.12107009
     atom   34 type  4   force =     0.04122498    0.07605552    0.12107009
     atom   35 type  4   force =     0.04122498   -0.07605552    0.12107009
     atom   36 type  4   force =     0.04122498    0.07605552   -0.12107009
     atom   37 type  4   force =    -0.04122498    0.07605552    0.12107009
     atom   38 type  4   force =    -0.04122498   -0.07605552   -0.12107009
     atom   39 type  4   force =     0.05022667   -0.08978660    0.14150574
     atom   40 type  4   force =     0.05022667    0.08978660   -0.14150574
     atom   41 type  4   force =    -0.05022667    0.08978660    0.14150574
     atom   42 type  4   force =    -0.05022667   -0.08978660   -0.14150574
     atom   43 type  4   force =    -0.05022667    0.08978660   -0.14150574
     atom   44 type  4   force =    -0.05022667   -0.08978660    0.14150574
     atom   45 type  4   force =     0.05022667   -0.08978660   -0.14150574
     atom   46 type  4   force =     0.05022667    0.08978660    0.14150574
     atom   47 type  5   force =    -0.07255323    0.06747250    0.00000000
     atom   48 type  5   force =    -0.07255323   -0.06747250    0.00000000
     atom   49 type  5   force =     0.07255323   -0.06747250   -0.00000000
     atom   50 type  5   force =     0.07255323    0.06747250   -0.00000000
     The ionic contribution  to forces
     atom    1 type  1   force =     2.25099825   -0.00000001   -0.00000001
     atom    2 type  1   force =    -2.25099826   -0.00000008    0.00000000
     atom    3 type  2   force =    -0.31448148    2.37583490    0.00000000
     atom    4 type  2   force =    -0.31448147   -2.37583481   -0.00000000
     atom    5 type  2   force =     0.31448147   -2.37583486   -0.00000001
     atom    6 type  2   force =     0.31448148    2.37583485   -0.00000000
     atom    7 type  2   force =    -2.45550816   -0.00000002   -0.00000000
     atom    8 type  2   force =     2.45550817   -0.00000001    0.00000000
     atom    9 type  2   force =     4.40270671   -0.00000002   -0.00000000
     atom   10 type  2   force =    -4.40270670   -0.00000000    0.00000001
     atom   11 type  3   force =    -1.88365541    2.80421341   -0.00000000
     atom   12 type  3   force =    -1.88365544   -2.80421336    0.00000000
     atom   13 type  3   force =     1.88365547   -2.80421338   -0.00000001
     atom   14 type  3   force =     1.88365552    2.80421338   -0.00000001
     atom   15 type  3   force =     2.73329937    4.62988362   -0.00000002
     atom   16 type  3   force =     2.73329942   -4.62988364    0.00000000
     atom   17 type  3   force =    -2.73329940   -4.62988361    0.00000001
     atom   18 type  3   force =    -2.73329944    4.62988362   -0.00000001
     atom   19 type  4   force =     0.58496033   -1.50318353   -1.91954708
     atom   20 type  4   force =     0.58496034    1.50318353    1.91954709
     atom   21 type  4   force =    -0.58496033    1.50318354   -1.91954708
     atom   22 type  4   force =    -0.58496033   -1.50318353    1.91954709
     atom   23 type  4   force =    -0.58496032    1.50318353    1.91954708
     atom   24 type  4   force =    -0.58496033   -1.50318353   -1.91954708
     atom   25 type  4   force =     0.58496033   -1.50318353    1.91954709
     atom   26 type  4   force =     0.58496034    1.50318353   -1.91954709
     atom   27 type  4   force =     2.22057418    0.38063996   -0.00000000
     atom   28 type  4   force =     2.22057417   -0.38063994    0.00000000
     atom   29 type  4   force =    -2.22057415   -0.38063995   -0.00000000
     atom   30 type  4   force =    -2.22057415    0.38063995   -0.00000001
     atom   31 type  4   force =     0.16735150   -1.55872811    1.73015709
     atom   32 type  4   force =     0.16735149    1.55872809   -1.73015708
     atom   33 type  4   force =    -0.16735149    1.55872809    1.73015708
     atom   34 type  4   force =    -0.16735151   -1.55872809   -1.73015710
     atom   35 type  4   force =    -0.16735150    1.55872809   -1.73015706
     atom   36 type  4   force =    -0.16735151   -1.55872810    1.73015709
     atom   37 type  4   force =     0.16735148   -1.55872809   -1.73015710
     atom   38 type  4   force =     0.16735150    1.55872810    1.73015709
     atom   39 type  4   force =    -1.06340742    1.36064585   -2.15072531
     atom   40 type  4   force =    -1.06340742   -1.36064586    2.15072536
     atom   41 type  4   force =     1.06340742   -1.36064586   -2.15072536
     atom   42 type  4   force =     1.06340741    1.36064588    2.15072536
     atom   43 type  4   force =     1.06340742   -1.36064586    2.15072535
     atom   44 type  4   force =     1.06340740    1.36064586   -2.15072534
     atom   45 type  4   force =    -1.06340743    1.36064587    2.15072533
     atom   46 type  4   force =    -1.06340743   -1.36064586   -2.15072536
     atom   47 type  5   force =     2.56331361   -0.77442537    0.00000000
     atom   48 type  5   force =     2.56331367    0.77442534   -0.00000001
     atom   49 type  5   force =    -2.56331367    0.77442538   -0.00000001
     atom   50 type  5   force =    -2.56331370   -0.77442536    0.00000001
     The local contribution  to forces
     atom    1 type  1   force =    -2.34766503   -0.00000000   -0.00000000
     atom    2 type  1   force =     2.34766503   -0.00000000   -0.00000000
     atom    3 type  2   force =     0.31551618   -2.35010039    0.00000000
     atom    4 type  2   force =     0.31551620    2.35010053    0.00000000
     atom    5 type  2   force =    -0.31551627    2.35010045   -0.00000003
     atom    6 type  2   force =    -0.31551628   -2.35010047   -0.00000003
     atom    7 type  2   force =     2.42441597   -0.00000000   -0.00000000
     atom    8 type  2   force =    -2.42441597   -0.00000000    0.00000000
     atom    9 type  2   force =    -4.33636828    0.00000000    0.00000000
     atom   10 type  2   force =     4.33636828   -0.00000000    0.00000000
     atom   11 type  3   force =     1.56042109   -2.66387795    0.00000001
     atom   12 type  3   force =     1.56042108    2.66387797   -0.00000000
     atom   13 type  3   force =    -1.56042109    2.66387795   -0.00000001
     atom   14 type  3   force =    -1.56042108   -2.66387797   -0.00000000
     atom   15 type  3   force =    -2.56694089   -4.28052160   -0.00000000
     atom   16 type  3   force =    -2.56694086    4.28052176   -0.00000000
     atom   17 type  3   force =     2.56694078    4.28052170   -0.00000005
     atom   18 type  3   force =     2.56694078   -4.28052170   -0.00000005
     atom   19 type  4   force =    -0.54518360    1.42431913    1.79857674
     atom   20 type  4   force =    -0.54518360   -1.42431912   -1.79857674
     atom   21 type  4   force =     0.54518360   -1.42431913    1.79857674
     atom   22 type  4   force =     0.54518360    1.42431912   -1.79857674
     atom   23 type  4   force =     0.54518360   -1.42431913   -1.79857674
     atom   24 type  4   force =     0.54518360    1.42431912    1.79857674
     atom   25 type  4   force =    -0.54518360    1.42431913   -1.79857674
     atom   26 type  4   force =    -0.54518360   -1.42431912    1.79857674
     atom   27 type  4   force =    -2.07281263   -0.40091784   -0.00000000
     atom   28 type  4   force =    -2.07281263    0.40091783   -0.00000000
     atom   29 type  4   force =     2.07281263    0.40091784   -0.00000000
     atom   30 type  4   force =     2.07281263   -0.40091783    0.00000000
     atom   31 type  4   force =    -0.12611101    1.48266654   -1.60908011
     atom   32 type  4   force =    -0.12611102   -1.48266654    1.60908011
     atom   33 type  4   force =     0.12611098   -1.48266652   -1.60908014
     atom   34 type  4   force =     0.12611105    1.48266651    1.60908013
     atom   35 type  4   force =     0.12611101   -1.48266654    1.60908011
     atom   36 type  4   force =     0.12611102    1.48266654   -1.60908011
     atom   37 type  4   force =    -0.12611098    1.48266652    1.60908014
     atom   38 type  4   force =    -0.12611105   -1.48266651   -1.60908013
     atom   39 type  4   force =     1.01318307   -1.27084875    2.00921407
     atom   40 type  4   force =     1.01318303    1.27084872   -2.00921411
     atom   41 type  4   force =    -1.01318306    1.27084875    2.00921408
     atom   42 type  4   force =    -1.01318305   -1.27084874   -2.00921411
     atom   43 type  4   force =    -1.01318307    1.27084875   -2.00921407
     atom   44 type  4   force =    -1.01318303   -1.27084872    2.00921411
     atom   45 type  4   force =     1.01318306   -1.27084875   -2.00921408
     atom   46 type  4   force =     1.01318305    1.27084874    2.00921411
     atom   47 type  5   force =    -2.49542419    0.71407712   -0.00000001
     atom   48 type  5   force =    -2.49542414   -0.71407665   -0.00000000
     atom   49 type  5   force =     2.49542395   -0.71407686   -0.00000010
     atom   50 type  5   force =     2.49542393    0.71407688   -0.00000011
     The core correction contribution to forces
     atom    1 type  1   force =    -0.00334943   -0.00000000   -0.00000000
     atom    2 type  1   force =     0.00334943   -0.00000000   -0.00000000
     atom    3 type  2   force =     0.00010678    0.00207484   -0.00000000
     atom    4 type  2   force =     0.00010678   -0.00207485   -0.00000000
     atom    5 type  2   force =    -0.00010678   -0.00207484    0.00000000
     atom    6 type  2   force =    -0.00010678    0.00207485    0.00000000
     atom    7 type  2   force =    -0.00241720   -0.00000000   -0.00000000
     atom    8 type  2   force =     0.00241720   -0.00000000    0.00000000
     atom    9 type  2   force =     0.00507362   -0.00000000    0.00000000
     atom   10 type  2   force =    -0.00507362    0.00000000   -0.00000000
     atom   11 type  3   force =    -0.01528420    0.00817204   -0.00000000
     atom   12 type  3   force =    -0.01528420   -0.00817204   -0.00000000
     atom   13 type  3   force =     0.01528420   -0.00817204    0.00000000
     atom   14 type  3   force =     0.01528420    0.00817204    0.00000000
     atom   15 type  3   force =     0.00784035    0.01671328    0.00000000
     atom   16 type  3   force =     0.00784035   -0.01671329    0.00000000
     atom   17 type  3   force =    -0.00784034   -0.01671329    0.00000000
     atom   18 type  3   force =    -0.00784034    0.01671329    0.00000000
     atom   19 type  4   force =     0.00000000    0.00000000    0.00000000
     atom   20 type  4   force =     0.00000000    0.00000000    0.00000000
     atom   21 type  4   force =     0.00000000    0.00000000    0.00000000
     atom   22 type  4   force =     0.00000000    0.00000000    0.00000000
     atom   23 type  4   force =     0.00000000    0.00000000    0.00000000
     atom   24 type  4   force =     0.00000000    0.00000000    0.00000000
     atom   25 type  4   force =     0.00000000    0.00000000    0.00000000
     atom   26 type  4   force =     0.00000000    0.00000000    0.00000000
     atom   27 type  4   force =     0.00000000    0.00000000    0.00000000
     atom   28 type  4   force =     0.00000000    0.00000000    0.00000000
     atom   29 type  4   force =     0.00000000    0.00000000    0.00000000
     atom   30 type  4   force =     0.00000000    0.00000000    0.00000000
     atom   31 type  4   force =     0.00000000    0.00000000    0.00000000
     atom   32 type  4   force =     0.00000000    0.00000000    0.00000000
     atom   33 type  4   force =     0.00000000    0.00000000    0.00000000
     atom   34 type  4   force =     0.00000000    0.00000000    0.00000000
     atom   35 type  4   force =     0.00000000    0.00000000    0.00000000
     atom   36 type  4   force =     0.00000000    0.00000000    0.00000000
     atom   37 type  4   force =     0.00000000    0.00000000    0.00000000
     atom   38 type  4   force =     0.00000000    0.00000000    0.00000000
     atom   39 type  4   force =     0.00000000    0.00000000    0.00000000
     atom   40 type  4   force =     0.00000000    0.00000000    0.00000000
     atom   41 type  4   force =     0.00000000    0.00000000    0.00000000
     atom   42 type  4   force =     0.00000000    0.00000000    0.00000000
     atom   43 type  4   force =     0.00000000    0.00000000    0.00000000
     atom   44 type  4   force =     0.00000000    0.00000000    0.00000000
     atom   45 type  4   force =     0.00000000    0.00000000    0.00000000
     atom   46 type  4   force =     0.00000000    0.00000000    0.00000000
     atom   47 type  5   force =     0.00466821   -0.00712555    0.00000000
     atom   48 type  5   force =     0.00466820    0.00712553    0.00000000
     atom   49 type  5   force =    -0.00466820    0.00712554    0.00000000
     atom   50 type  5   force =    -0.00466820   -0.00712554    0.00000000
     The Hubbard contrib.    to forces
     atom    1 type  1   force =     0.00000000    0.00000000    0.00000000
     atom    2 type  1   force =     0.00000000    0.00000000    0.00000000
     atom    3 type  2   force =     0.00000000    0.00000000    0.00000000
     atom    4 type  2   force =     0.00000000    0.00000000    0.00000000
     atom    5 type  2   force =     0.00000000    0.00000000    0.00000000
     atom    6 type  2   force =     0.00000000    0.00000000    0.00000000
     atom    7 type  2   force =     0.00000000    0.00000000    0.00000000
     atom    8 type  2   force =     0.00000000    0.00000000    0.00000000
     atom    9 type  2   force =     0.00000000    0.00000000    0.00000000
     atom   10 type  2   force =     0.00000000    0.00000000    0.00000000
     atom   11 type  3   force =     0.00000000    0.00000000    0.00000000
     atom   12 type  3   force =     0.00000000    0.00000000    0.00000000
     atom   13 type  3   force =     0.00000000    0.00000000    0.00000000
     atom   14 type  3   force =     0.00000000    0.00000000    0.00000000
     atom   15 type  3   force =     0.00000000    0.00000000    0.00000000
     atom   16 type  3   force =     0.00000000    0.00000000    0.00000000
     atom   17 type  3   force =     0.00000000    0.00000000    0.00000000
     atom   18 type  3   force =     0.00000000    0.00000000    0.00000000
     atom   19 type  4   force =     0.00000000    0.00000000    0.00000000
     atom   20 type  4   force =     0.00000000    0.00000000    0.00000000
     atom   21 type  4   force =     0.00000000    0.00000000    0.00000000
     atom   22 type  4   force =     0.00000000    0.00000000    0.00000000
     atom   23 type  4   force =     0.00000000    0.00000000    0.00000000
     atom   24 type  4   force =     0.00000000    0.00000000    0.00000000
     atom   25 type  4   force =     0.00000000    0.00000000    0.00000000
     atom   26 type  4   force =     0.00000000    0.00000000    0.00000000
     atom   27 type  4   force =     0.00000000    0.00000000    0.00000000
     atom   28 type  4   force =     0.00000000    0.00000000    0.00000000
     atom   29 type  4   force =     0.00000000    0.00000000    0.00000000
     atom   30 type  4   force =     0.00000000    0.00000000    0.00000000
     atom   31 type  4   force =     0.00000000    0.00000000    0.00000000
     atom   32 type  4   force =     0.00000000    0.00000000    0.00000000
     atom   33 type  4   force =     0.00000000    0.00000000    0.00000000
     atom   34 type  4   force =     0.00000000    0.00000000    0.00000000
     atom   35 type  4   force =     0.00000000    0.00000000    0.00000000
     atom   36 type  4   force =     0.00000000    0.00000000    0.00000000
     atom   37 type  4   force =     0.00000000    0.00000000    0.00000000
     atom   38 type  4   force =     0.00000000    0.00000000    0.00000000
     atom   39 type  4   force =     0.00000000    0.00000000    0.00000000
     atom   40 type  4   force =     0.00000000    0.00000000    0.00000000
     atom   41 type  4   force =     0.00000000    0.00000000    0.00000000
     atom   42 type  4   force =     0.00000000    0.00000000    0.00000000
     atom   43 type  4   force =     0.00000000    0.00000000    0.00000000
     atom   44 type  4   force =     0.00000000    0.00000000    0.00000000
     atom   45 type  4   force =     0.00000000    0.00000000    0.00000000
     atom   46 type  4   force =     0.00000000    0.00000000    0.00000000
     atom   47 type  5   force =     0.00000000    0.00000000    0.00000000
     atom   48 type  5   force =     0.00000000    0.00000000    0.00000000
     atom   49 type  5   force =     0.00000000    0.00000000    0.00000000
     atom   50 type  5   force =     0.00000000    0.00000000    0.00000000
     The SCF correction term to forces
     atom    1 type  1   force =     0.00000044   -0.00000000   -0.00000000
     atom    2 type  1   force =    -0.00000044   -0.00000000    0.00000000
     atom    3 type  2   force =     0.00000008    0.00000031    0.00000000
     atom    4 type  2   force =     0.00000008   -0.00000031    0.00000000
     atom    5 type  2   force =    -0.00000008   -0.00000031   -0.00000000
     atom    6 type  2   force =    -0.00000008    0.00000031   -0.00000000
     atom    7 type  2   force =    -0.00000044   -0.00000000   -0.00000000
     atom    8 type  2   force =     0.00000044   -0.00000000    0.00000000
     atom    9 type  2   force =     0.00000042   -0.00000000   -0.00000000
     atom   10 type  2   force =    -0.00000042    0.00000000    0.00000000
     atom   11 type  3   force =    -0.00000006   -0.00000017    0.00000000
     atom   12 type  3   force =    -0.00000006    0.00000017    0.00000000
     atom   13 type  3   force =     0.00000006    0.00000017   -0.00000000
     atom   14 type  3   force =     0.00000006   -0.00000017   -0.00000000
     atom   15 type  3   force =     0.00000003    0.00000007   -0.00000000
     atom   16 type  3   force =     0.00000003   -0.00000007    0.00000000
     atom   17 type  3   force =    -0.00000003   -0.00000007   -0.00000000
     atom   18 type  3   force =    -0.00000003    0.00000007   -0.00000000
     atom   19 type  4   force =    -0.00000002    0.00000004    0.00000002
     atom   20 type  4   force =    -0.00000002   -0.00000004   -0.00000002
     atom   21 type  4   force =     0.00000002   -0.00000004    0.00000002
     atom   22 type  4   force =     0.00000002    0.00000004   -0.00000002
     atom   23 type  4   force =     0.00000002   -0.00000004   -0.00000002
     atom   24 type  4   force =     0.00000002    0.00000004    0.00000002
     atom   25 type  4   force =    -0.00000002    0.00000004   -0.00000002
     atom   26 type  4   force =    -0.00000002   -0.00000004    0.00000002
     atom   27 type  4   force =    -0.00000004    0.00000001   -0.00000000
     atom   28 type  4   force =    -0.00000004   -0.00000001   -0.00000000
     atom   29 type  4   force =     0.00000004   -0.00000001   -0.00000000
     atom   30 type  4   force =     0.00000004    0.00000001   -0.00000000
     atom   31 type  4   force =    -0.00000003    0.00000002   -0.00000004
     atom   32 type  4   force =    -0.00000003   -0.00000002    0.00000004
     atom   33 type  4   force =     0.00000003   -0.00000002   -0.00000004
     atom   34 type  4   force =     0.00000003    0.00000002    0.00000004
     atom   35 type  4   force =     0.00000003   -0.00000002    0.00000004
     atom   36 type  4   force =     0.00000003    0.00000002   -0.00000004
     atom   37 type  4   force =    -0.00000003    0.00000002    0.00000004
     atom   38 type  4   force =    -0.00000003   -0.00000002   -0.00000004
     atom   39 type  4   force =    -0.00000001   -0.00000000   -0.00000006
     atom   40 type  4   force =    -0.00000001    0.00000000    0.00000006
     atom   41 type  4   force =     0.00000001    0.00000000   -0.00000006
     atom   42 type  4   force =     0.00000001   -0.00000000    0.00000006
     atom   43 type  4   force =     0.00000001    0.00000000    0.00000006
     atom   44 type  4   force =     0.00000001   -0.00000000   -0.00000006
     atom   45 type  4   force =    -0.00000001   -0.00000000    0.00000006
     atom   46 type  4   force =    -0.00000001    0.00000000   -0.00000006
     atom   47 type  5   force =    -0.00000008    0.00000031    0.00000000
     atom   48 type  5   force =    -0.00000008   -0.00000031    0.00000000
     atom   49 type  5   force =     0.00000008   -0.00000031   -0.00000000
     atom   50 type  5   force =     0.00000008    0.00000031   -0.00000000

     Total force =     0.000087     Total SCF correction =     0.000001

     Writing all to output data dir ./scf.save/
 
     init_run     :      1.40s CPU      1.45s WALL (       1 calls)
     electrons    :      9.58s CPU      9.85s WALL (       1 calls)
     forces       :      0.34s CPU      0.35s WALL (       1 calls)

     Called by init_run:
     wfcinit      :      0.24s CPU      0.26s WALL (       1 calls)
     wfcinit:atom :      0.00s CPU      0.00s WALL (       2 calls)
     wfcinit:wfcr :      0.22s CPU      0.24s WALL (       2 calls)
     potinit      :      0.15s CPU      0.17s WALL (       1 calls)
     hinit0       :      0.28s CPU      0.29s WALL (       1 calls)

     Called by electrons:
     c_bands      :      7.88s CPU      8.01s WALL (      15 calls)
     sum_band     :      0.93s CPU      0.96s WALL (      15 calls)
     v_of_rho     :      0.37s CPU      0.41s WALL (      16 calls)
     v_h          :      0.02s CPU      0.02s WALL (      16 calls)
     v_xc         :      0.37s CPU      0.41s WALL (      17 calls)
     mix_rho      :      0.06s CPU      0.06s WALL (      15 calls)

     Called by c_bands:
     init_us_2    :      0.20s CPU      0.21s WALL (      64 calls)
     init_us_2:cp :      0.20s CPU      0.21s WALL (      64 calls)
     cegterg      :      6.69s CPU      6.81s WALL (      30 calls)

     Called by sum_band:
     sum_band:wei :      0.00s CPU      0.00s WALL (      15 calls)
     sum_band:loo :      0.84s CPU      0.85s WALL (      15 calls)
     sum_band:buf :      0.02s CPU      0.02s WALL (      30 calls)
     sum_band:ini :      0.09s CPU      0.10s WALL (      30 calls)

     Called by *egterg:
     cdiaghg      :      0.89s CPU      0.90s WALL (     119 calls)
     cegterg:over :      0.38s CPU      0.40s WALL (      89 calls)
     cegterg:upda :      0.17s CPU      0.17s WALL (      89 calls)
     cegterg:last :      0.20s CPU      0.20s WALL (      62 calls)
     h_psi        :      5.06s CPU      5.15s WALL (     121 calls)
     g_psi        :      0.01s CPU      0.01s WALL (      89 calls)

     Called by h_psi:
     h_psi:calbec :      0.57s CPU      0.61s WALL (     121 calls)
     vloc_psi     :      3.85s CPU      3.90s WALL (     121 calls)
     add_vuspsi   :      0.60s CPU      0.61s WALL (     121 calls)

     General routines
     calbec       :      0.62s CPU      0.65s WALL (     129 calls)
     fft          :      0.14s CPU      0.18s WALL (     170 calls)
     ffts         :      0.02s CPU      0.03s WALL (      15 calls)
     fftw         :      3.94s CPU      4.00s WALL (   16262 calls)
 
     Parallel routines
 
     PWSCF        :     11.58s CPU     12.48s WALL

 
   This run was terminated on:  21:59:29  18Jun2023            

=------------------------------------------------------------------------------=
   JOB DONE.
=------------------------------------------------------------------------------=
