
     Program PWSCF v.7.1 starts on 30Aug2023 at 15:56:22 

     This program is part of the open-source Quantum ESPRESSO suite
     for quantum simulation of materials; please cite
         "P. Giannozzi et al., J. Phys.:Condens. Matter 21 395502 (2009);
         "P. Giannozzi et al., J. Phys.:Condens. Matter 29 465901 (2017);
         "P. Giannozzi et al., J. Chem. Phys. 152 154105 (2020);
          URL http://www.quantum-espresso.org", 
     in publications or presentations arising from this work. More details at
     http://www.quantum-espresso.org/quote

     Parallel version (MPI), running on    56 processors

     MPI processes distributed on     1 nodes
     142054 MiB available memory on the printing compute node when the environment starts
 
     Waiting for input...
     Reading input from standard input
Warning: card &IONS ignored
Warning: card / ignored
Warning: card &CELL ignored
Warning: card PRESS_CONV_THR = 0.001 ignored
Warning: card / ignored

     Current dimensions of program PWSCF are:
     Max number of different atomic species (ntypx) = 10
     Max number of k-points (npk) =  40000
     Max angular momentum in pseudopotentials (lmaxx) =  4

     Atomic positions and unit cell read from directory:
     ./scf1.save/
     Atomic positions from file used, from input discarded
 
     Message from routine setup:
     using ibrav=0 with symmetry is DISCOURAGED, use correct ibrav instead
 
     K-points division:     npool     =       2
     R & G space division:  proc/nbgrp/npool/nimage =      28
     Subspace diagonalization in iterative solution of the eigenvalue problem:
     a serial algorithm will be used

 
     Parallelization info
     --------------------
     sticks:   dense  smooth     PW     G-vecs:    dense   smooth      PW
     Min         283     283     82                 9831     9831    1535
     Max         284     284     83                 9834     9834    1536
     Sum        7949    7949   2299               275321   275321   42991
 
     Using Slab Decomposition
 


     bravais-lattice index     =            0
     lattice parameter (alat)  =      20.4147  a.u.
     unit-cell volume          =    4384.1849 (a.u.)^3
     number of atoms/cell      =           50
     number of atomic types    =            5
     number of electrons       =       164.00
     number of Kohn-Sham states=          330
     kinetic-energy cutoff     =      60.0000  Ry
     charge density cutoff     =     240.0000  Ry
     Exchange-correlation= PBE
                           (   1   4   3   4   0   0   0)

     celldm(1)=  20.414728  celldm(2)=   0.000000  celldm(3)=   0.000000
     celldm(4)=   0.000000  celldm(5)=   0.000000  celldm(6)=   0.000000

     crystal axes: (cart. coord. in units of alat)
               a(1) = (   0.675983   0.681859   0.279491 )  
               a(2) = (   0.675983  -0.681859   0.279491 )  
               a(3) = (   0.675983  -0.681859  -0.279491 )  

     reciprocal axes: (cart. coord. in units 2 pi/alat)
               b(1) = (  0.739663  0.733289  0.000000 )  
               b(2) = (  0.000000 -0.733289  1.788967 )  
               b(3) = (  0.739663 -0.000000 -1.788967 )  


     PseudoPot. # 1 for Pb read from file:
     /home/rkarkee/merced_home_backup/rkarkee/pseudo/Pb.upf
     MD5 check sum: 465799cf2c9ea2062203eb79f5a7a375
     Pseudo is Norm-conserving + core correction, Zval = 14.0
     Generated using ONCVPSP code by D. R. Hamann
     Using radial grid of 1678 points,  6 beta functions with: 
                l(1) =   0
                l(2) =   0
                l(3) =   1
                l(4) =   1
                l(5) =   2
                l(6) =   2

     PseudoPot. # 2 for Br read from file:
     /home/rkarkee/merced_home_backup/rkarkee/pseudo/Br.upf
     MD5 check sum: 68275ccec8d7d9019ef58dac33cdd12b
     Pseudo is Norm-conserving + core correction, Zval =  7.0
     Generated using ONCVPSP code by D. R. Hamann
     Using radial grid of 1098 points,  6 beta functions with: 
                l(1) =   0
                l(2) =   0
                l(3) =   1
                l(4) =   1
                l(5) =   2
                l(6) =   2

     PseudoPot. # 3 for C  read from file:
     /home/rkarkee/merced_home_backup/rkarkee/pseudo/C.upf
     MD5 check sum: 34a24e64c0a39f27c6c36b90a16ac686
     Pseudo is Norm-conserving + core correction, Zval =  4.0
     Generated using ONCVPSP code by D. R. Hamann
     Using radial grid of 1248 points,  4 beta functions with: 
                l(1) =   0
                l(2) =   0
                l(3) =   1
                l(4) =   1

     PseudoPot. # 4 for H  read from file:
     /home/rkarkee/merced_home_backup/rkarkee/pseudo/H.upf
     MD5 check sum: e96aa7e3e4a958db16958554ea960e2a
     Pseudo is Norm-conserving, Zval =  1.0
     Generated using ONCVPSP code by D. R. Hamann
     Using radial grid of 1166 points,  3 beta functions with: 
                l(1) =   0
                l(2) =   0
                l(3) =   1

     PseudoPot. # 5 for N  read from file:
     /home/rkarkee/merced_home_backup/rkarkee/pseudo/N.upf
     MD5 check sum: d34365f73bb0e2ee98afc20ec3e87676
     Pseudo is Norm-conserving + core correction, Zval =  5.0
     Generated using ONCVPSP code by D. R. Hamann
     Using radial grid of 1058 points,  4 beta functions with: 
                l(1) =   0
                l(2) =   0
                l(3) =   1
                l(4) =   1

     atomic species   valence    mass     pseudopotential
        Pb            14.00   207.20000     Pb( 1.00)
        Br             7.00    79.90000     Br( 1.00)
        C              4.00    12.01000     C ( 1.00)
        H              1.00     1.00800     H ( 1.00)
        N              5.00    14.01000     N ( 1.00)

      8 Sym. Ops., with inversion, found ( 4 have fractional translation)


                                    s                        frac. trans.

      isym =  1     identity                                     

 cryst.   s( 1) = (     1          0          0      )
                  (     0          1          0      )
                  (     0          0          1      )

 cart.    s( 1) = (  1.0000000  0.0000000  0.0000000 )
                  (  0.0000000  1.0000000 -0.0000000 )
                  (  0.0000000 -0.0000000  1.0000000 )


      isym =  2     180 deg rotation - cart. axis [0,0,1]        

 cryst.   s( 2) = (    -1          1         -1      )    f =(  0.0000000 )
                  (     0          0         -1      )       ( -0.5000000 )
                  (     0         -1          0      )       ( -0.5000000 )

 cart.    s( 2) = ( -1.0000000  0.0000000 -0.0000001 )    f =( -0.6759831 )
                  ( -0.0000000 -1.0000000 -0.0000002 )       (  0.6818590 )
                  (  0.0000001 -0.0000000  1.0000000 )       (  0.0000000 )


      isym =  3     180 deg rotation - cart. axis [0,1,0]        

 cryst.   s( 3) = (     0         -1          0      )
                  (    -1          0          0      )
                  (    -1          1         -1      )

 cart.    s( 3) = ( -1.0000000  0.0000000  0.0000000 )
                  ( -0.0000001  1.0000000  0.0000002 )
                  ( -0.0000000  0.0000000 -1.0000000 )


      isym =  4     180 deg rotation - cart. axis [1,0,0]        

 cryst.   s( 4) = (     0          0          1      )    f =( -0.0000000 )
                  (     1         -1          1      )       ( -0.5000000 )
                  (     1          0          0      )       (  0.5000000 )

 cart.    s( 4) = (  1.0000000 -0.0000000  0.0000001 )    f =(  0.0000000 )
                  (  0.0000001 -1.0000000  0.0000000 )       (  0.0000000 )
                  ( -0.0000001  0.0000000 -1.0000000 )       ( -0.2794909 )


      isym =  5     inversion                                    

 cryst.   s( 5) = (    -1          0          0      )
                  (     0         -1          0      )
                  (     0          0         -1      )

 cart.    s( 5) = ( -1.0000000 -0.0000000 -0.0000000 )
                  ( -0.0000000 -1.0000000  0.0000000 )
                  ( -0.0000000  0.0000000 -1.0000000 )


      isym =  6     inv. 180 deg rotation - cart. axis [0,0,1]   

 cryst.   s( 6) = (     1         -1          1      )    f =(  0.0000000 )
                  (     0          0          1      )       ( -0.5000000 )
                  (     0          1          0      )       (  0.5000000 )

 cart.    s( 6) = (  1.0000000 -0.0000000  0.0000001 )    f =(  0.0000000 )
                  (  0.0000000  1.0000000  0.0000002 )       (  0.0000000 )
                  ( -0.0000001  0.0000000 -1.0000000 )       ( -0.2794909 )


      isym =  7     inv. 180 deg rotation - cart. axis [0,1,0]   

 cryst.   s( 7) = (     0          1          0      )
                  (     1          0          0      )
                  (     1         -1          1      )

 cart.    s( 7) = (  1.0000000 -0.0000000 -0.0000000 )
                  (  0.0000001 -1.0000000 -0.0000002 )
                  (  0.0000000 -0.0000000  1.0000000 )


      isym =  8     inv. 180 deg rotation - cart. axis [1,0,0]   

 cryst.   s( 8) = (     0          0         -1      )    f =(  0.0000000 )
                  (    -1          1         -1      )       ( -0.5000000 )
                  (    -1          0          0      )       ( -0.5000000 )

 cart.    s( 8) = ( -1.0000000  0.0000000 -0.0000001 )    f =( -0.6759831 )
                  ( -0.0000001  1.0000000 -0.0000000 )       (  0.6818590 )
                  (  0.0000001 -0.0000000  1.0000000 )       (  0.0000000 )


   Cartesian axes

     site n.     atom                  positions (alat units)
         1           Pb  tau(   1) = (   1.5075418  -0.6818590   0.1397454  )
         2           Pb  tau(   2) = (   0.5204074   0.0000000   0.1397454  )
         3           Br  tau(   3) = (   0.5385907   0.2793391   0.1397454  )
         4           Br  tau(   4) = (   0.5385907  -0.2793391   0.1397454  )
         5           Br  tau(   5) = (   1.4893586  -0.9611980   0.1397454  )
         6           Br  tau(   6) = (   1.4893586  -0.4025199   0.1397454  )
         7           Br  tau(   7) = (   1.2072256  -0.6818590   0.1397454  )
         8           Br  tau(   8) = (   0.8207237   0.0000000   0.1397454  )
         9           Br  tau(   9) = (   1.1001315   0.0000000   0.4192362  )
        10           Br  tau(  10) = (   0.9278178  -0.6818590  -0.1397455  )
        11           C   tau(  11) = (   1.0435272  -0.2770472   0.1397454  )
        12           C   tau(  12) = (   1.0435272   0.2770473   0.1397454  )
        13           C   tau(  13) = (   0.9844221  -0.4048118   0.1397454  )
        14           C   tau(  14) = (   0.9844220  -0.9589062   0.1397454  )
        15           C   tau(  15) = (   1.2437548  -0.1666552   0.1397454  )
        16           C   tau(  16) = (   0.5677717  -0.5152038  -0.1397455  )
        17           C   tau(  17) = (   0.7841945  -0.5152038   0.1397454  )
        18           C   tau(  18) = (   1.4601776  -0.1666552   0.4192362  )
        19           H   tau(  19) = (   1.0102673  -0.4576497   0.0569380  )
        20           H   tau(  20) = (   0.3342842  -0.2242093  -0.0569381  )
        21           H   tau(  21) = (   1.0176820  -0.2242093   0.0569380  )
        22           H   tau(  22) = (   1.0176820   0.2242093   0.2225527  )
        23           H   tau(  23) = (   1.0176819  -0.2242093   0.2225527  )
        24           H   tau(  24) = (   1.6936651  -0.4576497   0.3364289  )
        25           H   tau(  25) = (   1.0102673  -0.4576497   0.2225527  )
        26           H   tau(  26) = (   1.0102673  -0.9060683   0.0569380  )
        27           H   tau(  27) = (   1.3437843  -0.1821188   0.1397454  )
        28           H   tau(  28) = (   0.6678012  -0.4997402  -0.1397455  )
        29           H   tau(  29) = (   0.6841650  -0.4997402   0.1397454  )
        30           H   tau(  30) = (   1.3601482  -0.1821188   0.4192362  )
        31           H   tau(  31) = (   0.8130520  -0.5655596   0.2229066  )
        32           H   tau(  32) = (   0.8130520  -0.7981584   0.0565842  )
        33           H   tau(  33) = (   1.2148973  -0.1162994   0.2229066  )
        34           H   tau(  34) = (   1.2148973   0.1162994   0.0565842  )
        35           H   tau(  35) = (   1.2148973  -0.1162993   0.0565842  )
        36           H   tau(  36) = (   1.2148973   0.1162994   0.2229066  )
        37           H   tau(  37) = (   0.8130520  -0.5655596   0.0565842  )
        38           H   tau(  38) = (   0.8130520  -0.7981584   0.2229066  )
        39           H   tau(  39) = (   0.8200186  -0.3429687   0.0611483  )
        40           H   tau(  40) = (   0.8200186   0.3429687   0.2183425  )
        41           H   tau(  41) = (   1.2079308  -0.3388903   0.0611483  )
        42           H   tau(  42) = (   0.5319476  -0.3429687  -0.0611483  )
        43           H   tau(  43) = (   1.2079307  -0.3388903   0.2183425  )
        44           H   tau(  44) = (   1.2079307  -1.0248277   0.0611483  )
        45           H   tau(  45) = (   0.8200186  -0.3429687   0.2183425  )
        46           H   tau(  46) = (   1.4960016  -0.3388903   0.3406391  )
        47           N   tau(  47) = (   1.1808313  -0.2891989   0.1397454  )
        48           N   tau(  48) = (   0.5048482  -0.3926600  -0.1397454  )
        49           N   tau(  49) = (   0.8471180  -0.3926601   0.1397454  )
        50           N   tau(  50) = (   1.5231010  -0.2891989   0.4192362  )

   Crystallographic axes

     site n.     atom                  positions (cryst. coord.)
         1           Pb  tau(   1) = (  0.6150736  0.7500000  0.8650736  )
         2           Pb  tau(   2) = (  0.3849264  0.2500000  0.1349264  )
         3           Br  tau(   3) = (  0.6032122  0.0451636  0.1483758  )
         4           Br  tau(   4) = (  0.1935395  0.4548364  0.1483758  )
         5           Br  tau(   5) = (  0.3967878  0.9548364  0.8516241  )
         6           Br  tau(   6) = (  0.8064606  0.5451636  0.8516241  )
         7           Br  tau(   7) = (  0.3929407  0.7500000  0.6429407  )
         8           Br  tau(   8) = (  0.6070593  0.2500000  0.3570593  )
         9           Br  tau(   9) = (  0.8137271  0.7500000  0.0637271  )
        10           Br  tau(  10) = (  0.1862729  0.2500000  0.9362729  )
        11           C   tau(  11) = (  0.5687032  0.4531558  0.5218590  )
        12           C   tau(  12) = (  0.9750148  0.0468442  0.5218590  )
        13           C   tau(  13) = (  0.4312968  0.5468442  0.4781410  )
        14           C   tau(  14) = (  0.0249852  0.9531558  0.4781410  )
        15           C   tau(  15) = (  0.7977535  0.3722065  0.6699600  )
        16           C   tau(  16) = (  0.0421664  0.1277935  0.6699600  )
        17           C   tau(  17) = (  0.2022466  0.6277935  0.3300400  )
        18           C   tau(  18) = (  0.9578336  0.8722065  0.3300400  )
        19           H   tau(  19) = (  0.4116681  0.4374501  0.6453975  )
        20           H   tau(  20) = (  0.0828475  0.0625499  0.3491182  )
        21           H   tau(  21) = (  0.5883318  0.2662707  0.6508818  )
        22           H   tau(  22) = (  0.9171525  0.2337293  0.3546025  )
        23           H   tau(  23) = (  0.5883318  0.5625499  0.3546025  )
        24           H   tau(  24) = (  0.9171525  0.9374501  0.6508818  )
        25           H   tau(  25) = (  0.4116681  0.7337293  0.3491182  )
        26           H   tau(  26) = (  0.0828475  0.7662707  0.6453975  )
        27           H   tau(  27) = (  0.8604024  0.3835458  0.7439481  )
        28           H   tau(  28) = (  0.1274939  0.1164542  0.7439481  )
        29           H   tau(  29) = (  0.1395977  0.6164542  0.2560519  )
        30           H   tau(  30) = (  0.8725061  0.8835458  0.2560519  )
        31           H   tau(  31) = (  0.1866660  0.8134915  0.2026122  )
        32           H   tau(  32) = (  0.0161037  0.6865084  0.5001575  )
        33           H   tau(  33) = (  0.8133340  0.4840538  0.4998425  )
        34           H   tau(  34) = (  0.9838962  0.0159462  0.7973878  )
        35           H   tau(  35) = (  0.8133340  0.1865085  0.7973878  )
        36           H   tau(  36) = (  0.9838962  0.3134915  0.4998425  )
        37           H   tau(  37) = (  0.1866660  0.5159462  0.5001575  )
        38           H   tau(  38) = (  0.0161037  0.9840538  0.2026122  )
        39           H   tau(  39) = (  0.3550424  0.3608877  0.4971454  )
        40           H   tau(  40) = (  0.8580331  0.1391123  0.2159301  )
        41           H   tau(  41) = (  0.6449576  0.3578970  0.7840699  )
        42           H   tau(  42) = (  0.1419669  0.1421030  0.5028546  )
        43           H   tau(  43) = (  0.6449576  0.6391124  0.5028546  )
        44           H   tau(  44) = (  0.1419669  0.8608876  0.7840699  )
        45           H   tau(  45) = (  0.3550424  0.6421030  0.2159301  )
        46           H   tau(  46) = (  0.8580331  0.8578970  0.4971454  )
        47           N   tau(  47) = (  0.6613513  0.4620665  0.6234178  )
        48           N   tau(  48) = (  0.0854843  0.0379335  0.6234178  )
        49           N   tau(  49) = (  0.3386487  0.5379335  0.3765822  )
        50           N   tau(  50) = (  0.9145157  0.9620665  0.3765822  )

     number of k points=    64  Gaussian smearing, width (Ry)=  0.0001
                       cart. coord. in units 2pi/alat
        k(    1) = (   0.1859514   0.0010266   0.0007156), wk =   0.0312500
        k(    2) = (   0.3708672   0.0010266  -0.4465262), wk =   0.0312500
        k(    3) = (   0.5557831   0.0010266  -0.8937680), wk =   0.0312500
        k(    4) = (   0.7406989   0.0010266  -1.3410098), wk =   0.0312500
        k(    5) = (   0.1859514  -0.1822957   0.4479574), wk =   0.0312500
        k(    6) = (   0.3708673  -0.1822957   0.0007156), wk =   0.0312500
        k(    7) = (   0.5557831  -0.1822957  -0.4465262), wk =   0.0312500
        k(    8) = (   0.7406990  -0.1822957  -0.8937680), wk =   0.0312500
        k(    9) = (   0.1859514  -0.3656181   0.8951992), wk =   0.0312500
        k(   10) = (   0.3708673  -0.3656181   0.4479574), wk =   0.0312500
        k(   11) = (   0.5557831  -0.3656181   0.0007156), wk =   0.0312500
        k(   12) = (   0.7406990  -0.3656181  -0.4465262), wk =   0.0312500
        k(   13) = (   0.1859515  -0.5489404   1.3424410), wk =   0.0312500
        k(   14) = (   0.3708673  -0.5489404   0.8951992), wk =   0.0312500
        k(   15) = (   0.5557832  -0.5489404   0.4479574), wk =   0.0312500
        k(   16) = (   0.7406990  -0.5489404   0.0007156), wk =   0.0312500
        k(   17) = (   0.3708673   0.1843489   0.0007156), wk =   0.0312500
        k(   18) = (   0.5557831   0.1843489  -0.4465262), wk =   0.0312500
        k(   19) = (   0.7406989   0.1843489  -0.8937680), wk =   0.0312500
        k(   20) = (   0.9256148   0.1843489  -1.3410098), wk =   0.0312500
        k(   21) = (   0.3708673   0.0010266   0.4479574), wk =   0.0312500
        k(   22) = (   0.5557831   0.0010266   0.0007156), wk =   0.0312500
        k(   23) = (   0.7406990   0.0010266  -0.4465262), wk =   0.0312500
        k(   24) = (   0.9256148   0.0010266  -0.8937680), wk =   0.0312500
        k(   25) = (   0.3708673  -0.1822958   0.8951992), wk =   0.0312500
        k(   26) = (   0.5557831  -0.1822958   0.4479574), wk =   0.0312500
        k(   27) = (   0.7406990  -0.1822958   0.0007156), wk =   0.0312500
        k(   28) = (   0.9256148  -0.1822958  -0.4465262), wk =   0.0312500
        k(   29) = (   0.3708673  -0.3656181   1.3424410), wk =   0.0312500
        k(   30) = (   0.5557832  -0.3656181   0.8951992), wk =   0.0312500
        k(   31) = (   0.7406990  -0.3656181   0.4479574), wk =   0.0312500
        k(   32) = (   0.9256149  -0.3656181   0.0007156), wk =   0.0312500
        k(   33) = (   0.5557831   0.3676713   0.0007157), wk =   0.0312500
        k(   34) = (   0.7406990   0.3676713  -0.4465261), wk =   0.0312500
        k(   35) = (   0.9256148   0.3676713  -0.8937679), wk =   0.0312500
        k(   36) = (   1.1105306   0.3676713  -1.3410098), wk =   0.0312500
        k(   37) = (   0.5557831   0.1843489   0.4479575), wk =   0.0312500
        k(   38) = (   0.7406990   0.1843489   0.0007157), wk =   0.0312500
        k(   39) = (   0.9256148   0.1843489  -0.4465261), wk =   0.0312500
        k(   40) = (   1.1105307   0.1843489  -0.8937680), wk =   0.0312500
        k(   41) = (   0.5557832   0.0010266   0.8951993), wk =   0.0312500
        k(   42) = (   0.7406990   0.0010266   0.4479575), wk =   0.0312500
        k(   43) = (   0.9256148   0.0010266   0.0007157), wk =   0.0312500
        k(   44) = (   1.1105307   0.0010266  -0.4465262), wk =   0.0312500
        k(   45) = (   0.5557832  -0.1822958   1.3424411), wk =   0.0312500
        k(   46) = (   0.7406990  -0.1822958   0.8951993), wk =   0.0312500
        k(   47) = (   0.9256149  -0.1822958   0.4479574), wk =   0.0312500
        k(   48) = (   1.1105307  -0.1822958   0.0007156), wk =   0.0312500
        k(   49) = (   0.7406990   0.5509936   0.0007157), wk =   0.0312500
        k(   50) = (   0.9256148   0.5509936  -0.4465261), wk =   0.0312500
        k(   51) = (   1.1105307   0.5509936  -0.8937679), wk =   0.0312500
        k(   52) = (   1.2954465   0.5509936  -1.3410097), wk =   0.0312500
        k(   53) = (   0.7406990   0.3676713   0.4479575), wk =   0.0312500
        k(   54) = (   0.9256148   0.3676713   0.0007157), wk =   0.0312500
        k(   55) = (   1.1105307   0.3676713  -0.4465261), wk =   0.0312500
        k(   56) = (   1.2954465   0.3676713  -0.8937679), wk =   0.0312500
        k(   57) = (   0.7406990   0.1843489   0.8951993), wk =   0.0312500
        k(   58) = (   0.9256149   0.1843489   0.4479575), wk =   0.0312500
        k(   59) = (   1.1105307   0.1843489   0.0007157), wk =   0.0312500
        k(   60) = (   1.2954466   0.1843489  -0.4465261), wk =   0.0312500
        k(   61) = (   0.7406990   0.0010266   1.3424411), wk =   0.0312500
        k(   62) = (   0.9256149   0.0010266   0.8951993), wk =   0.0312500
        k(   63) = (   1.1105307   0.0010266   0.4479575), wk =   0.0312500
        k(   64) = (   1.2954466   0.0010266   0.0007157), wk =   0.0312500

                       cryst. coord.
        k(    1) = (   0.1266000   0.1252000   0.1248000), wk =   0.0312500
        k(    2) = (   0.1266000   0.1252000   0.3748000), wk =   0.0312500
        k(    3) = (   0.1266000   0.1252000   0.6248000), wk =   0.0312500
        k(    4) = (   0.1266000   0.1252000   0.8748000), wk =   0.0312500
        k(    5) = (   0.1266000   0.3752000   0.1248000), wk =   0.0312500
        k(    6) = (   0.1266000   0.3752000   0.3748000), wk =   0.0312500
        k(    7) = (   0.1266000   0.3752000   0.6248000), wk =   0.0312500
        k(    8) = (   0.1266000   0.3752000   0.8748000), wk =   0.0312500
        k(    9) = (   0.1266000   0.6252000   0.1248000), wk =   0.0312500
        k(   10) = (   0.1266000   0.6252000   0.3748000), wk =   0.0312500
        k(   11) = (   0.1266000   0.6252000   0.6248000), wk =   0.0312500
        k(   12) = (   0.1266000   0.6252000   0.8748000), wk =   0.0312500
        k(   13) = (   0.1266000   0.8752000   0.1248000), wk =   0.0312500
        k(   14) = (   0.1266000   0.8752000   0.3748000), wk =   0.0312500
        k(   15) = (   0.1266000   0.8752000   0.6248000), wk =   0.0312500
        k(   16) = (   0.1266000   0.8752000   0.8748000), wk =   0.0312500
        k(   17) = (   0.3766000   0.1252000   0.1248000), wk =   0.0312500
        k(   18) = (   0.3766000   0.1252000   0.3748000), wk =   0.0312500
        k(   19) = (   0.3766000   0.1252000   0.6248000), wk =   0.0312500
        k(   20) = (   0.3766000   0.1252000   0.8748000), wk =   0.0312500
        k(   21) = (   0.3766000   0.3752000   0.1248000), wk =   0.0312500
        k(   22) = (   0.3766000   0.3752000   0.3748000), wk =   0.0312500
        k(   23) = (   0.3766000   0.3752000   0.6248000), wk =   0.0312500
        k(   24) = (   0.3766000   0.3752000   0.8748000), wk =   0.0312500
        k(   25) = (   0.3766000   0.6252000   0.1248000), wk =   0.0312500
        k(   26) = (   0.3766000   0.6252000   0.3748000), wk =   0.0312500
        k(   27) = (   0.3766000   0.6252000   0.6248000), wk =   0.0312500
        k(   28) = (   0.3766000   0.6252000   0.8748000), wk =   0.0312500
        k(   29) = (   0.3766000   0.8752000   0.1248000), wk =   0.0312500
        k(   30) = (   0.3766000   0.8752000   0.3748000), wk =   0.0312500
        k(   31) = (   0.3766000   0.8752000   0.6248000), wk =   0.0312500
        k(   32) = (   0.3766000   0.8752000   0.8748000), wk =   0.0312500
        k(   33) = (   0.6266000   0.1252000   0.1248000), wk =   0.0312500
        k(   34) = (   0.6266000   0.1252000   0.3748000), wk =   0.0312500
        k(   35) = (   0.6266000   0.1252000   0.6248000), wk =   0.0312500
        k(   36) = (   0.6266000   0.1252000   0.8748000), wk =   0.0312500
        k(   37) = (   0.6266000   0.3752000   0.1248000), wk =   0.0312500
        k(   38) = (   0.6266000   0.3752000   0.3748000), wk =   0.0312500
        k(   39) = (   0.6266000   0.3752000   0.6248000), wk =   0.0312500
        k(   40) = (   0.6266000   0.3752000   0.8748000), wk =   0.0312500
        k(   41) = (   0.6266000   0.6252000   0.1248000), wk =   0.0312500
        k(   42) = (   0.6266000   0.6252000   0.3748000), wk =   0.0312500
        k(   43) = (   0.6266000   0.6252000   0.6248000), wk =   0.0312500
        k(   44) = (   0.6266000   0.6252000   0.8748000), wk =   0.0312500
        k(   45) = (   0.6266000   0.8752000   0.1248000), wk =   0.0312500
        k(   46) = (   0.6266000   0.8752000   0.3748000), wk =   0.0312500
        k(   47) = (   0.6266000   0.8752000   0.6248000), wk =   0.0312500
        k(   48) = (   0.6266000   0.8752000   0.8748000), wk =   0.0312500
        k(   49) = (   0.8766000   0.1252000   0.1248000), wk =   0.0312500
        k(   50) = (   0.8766000   0.1252000   0.3748000), wk =   0.0312500
        k(   51) = (   0.8766000   0.1252000   0.6248000), wk =   0.0312500
        k(   52) = (   0.8766000   0.1252000   0.8748000), wk =   0.0312500
        k(   53) = (   0.8766000   0.3752000   0.1248000), wk =   0.0312500
        k(   54) = (   0.8766000   0.3752000   0.3748000), wk =   0.0312500
        k(   55) = (   0.8766000   0.3752000   0.6248000), wk =   0.0312500
        k(   56) = (   0.8766000   0.3752000   0.8748000), wk =   0.0312500
        k(   57) = (   0.8766000   0.6252000   0.1248000), wk =   0.0312500
        k(   58) = (   0.8766000   0.6252000   0.3748000), wk =   0.0312500
        k(   59) = (   0.8766000   0.6252000   0.6248000), wk =   0.0312500
        k(   60) = (   0.8766000   0.6252000   0.8748000), wk =   0.0312500
        k(   61) = (   0.8766000   0.8752000   0.1248000), wk =   0.0312500
        k(   62) = (   0.8766000   0.8752000   0.3748000), wk =   0.0312500
        k(   63) = (   0.8766000   0.8752000   0.6248000), wk =   0.0312500
        k(   64) = (   0.8766000   0.8752000   0.8748000), wk =   0.0312500

     Dense  grid:   275321 G-vectors     FFT dimensions: ( 108, 108, 108)

     Dynamical RAM for                 wfc:       6.18 MB

     Dynamical RAM for     wfc (w. buffer):       6.18 MB

     Dynamical RAM for           str. fact:       0.75 MB

     Dynamical RAM for           local pot:       0.00 MB

     Dynamical RAM for          nlocal pot:       7.79 MB

     Dynamical RAM for                qrad:       6.22 MB

     Dynamical RAM for          rho,v,vnew:       1.52 MB

     Dynamical RAM for           G-vectors:       0.64 MB

     Dynamical RAM for          h,s,v(r/c):      19.94 MB

     Dynamical RAM for          <psi|beta>:       2.09 MB

     Dynamical RAM for                 psi:      12.37 MB

     Dynamical RAM for                hpsi:      12.37 MB

     Dynamical RAM for      wfcinit/wfcrot:      14.86 MB

     Estimated static dynamical RAM per process >      25.78 MB

     Estimated max dynamical RAM per process >      72.55 MB

     Estimated total dynamical RAM >       3.97 GB

     The potential is recalculated from file :
     ./scf1.save/charge-density

     Starting wfcs are  126 randomized atomic wfcs +  204 random wfcs

     Band Structure Calculation
     Davidson diagonalization with overlap

     Computing kpt #:     1  of    32 on this pool
     total cpu time spent up to now is       30.6 secs

     Computing kpt #:     2  of    32 on this pool
     total cpu time spent up to now is       60.8 secs

     Computing kpt #:     3  of    32 on this pool
     total cpu time spent up to now is       89.6 secs

     Computing kpt #:     4  of    32 on this pool
     total cpu time spent up to now is      117.0 secs

     Computing kpt #:     5  of    32 on this pool
     total cpu time spent up to now is      147.2 secs

     Computing kpt #:     6  of    32 on this pool
     total cpu time spent up to now is      176.5 secs

     Computing kpt #:     7  of    32 on this pool
     total cpu time spent up to now is      207.3 secs

     Computing kpt #:     8  of    32 on this pool
     total cpu time spent up to now is      237.0 secs

     Computing kpt #:     9  of    32 on this pool
     total cpu time spent up to now is      264.9 secs

     Computing kpt #:    10  of    32 on this pool
     total cpu time spent up to now is      293.7 secs

     Computing kpt #:    11  of    32 on this pool
     total cpu time spent up to now is      322.9 secs

     Computing kpt #:    12  of    32 on this pool
     total cpu time spent up to now is      353.5 secs

     Computing kpt #:    13  of    32 on this pool
     total cpu time spent up to now is      386.4 secs

     Computing kpt #:    14  of    32 on this pool
     total cpu time spent up to now is      415.6 secs

     Computing kpt #:    15  of    32 on this pool
     total cpu time spent up to now is      445.9 secs

     Computing kpt #:    16  of    32 on this pool
     total cpu time spent up to now is      474.3 secs

     Computing kpt #:    17  of    32 on this pool
     total cpu time spent up to now is      503.8 secs

     Computing kpt #:    18  of    32 on this pool
     total cpu time spent up to now is      534.6 secs

     Computing kpt #:    19  of    32 on this pool
     total cpu time spent up to now is      564.0 secs

     Computing kpt #:    20  of    32 on this pool
     total cpu time spent up to now is      594.1 secs

     Computing kpt #:    21  of    32 on this pool
     total cpu time spent up to now is      624.1 secs

     Computing kpt #:    22  of    32 on this pool
     total cpu time spent up to now is      652.9 secs

     Computing kpt #:    23  of    32 on this pool
     total cpu time spent up to now is      681.7 secs

     Computing kpt #:    24  of    32 on this pool
     total cpu time spent up to now is      710.3 secs

     Computing kpt #:    25  of    32 on this pool
     total cpu time spent up to now is      740.4 secs

     Computing kpt #:    26  of    32 on this pool
     total cpu time spent up to now is      771.1 secs

     Computing kpt #:    27  of    32 on this pool
     total cpu time spent up to now is      801.1 secs

     Computing kpt #:    28  of    32 on this pool
     total cpu time spent up to now is      831.2 secs

     Computing kpt #:    29  of    32 on this pool
     total cpu time spent up to now is      860.1 secs

     Computing kpt #:    30  of    32 on this pool
     total cpu time spent up to now is      887.6 secs

     Computing kpt #:    31  of    32 on this pool
     total cpu time spent up to now is      918.0 secs

     Computing kpt #:    32  of    32 on this pool
     total cpu time spent up to now is      946.7 secs

     ethr =  1.00E-13,  avg # of iterations = 68.2

     total cpu time spent up to now is      946.7 secs

     End of band structure calculation

          k = 0.1860 0.0010 0.0007 ( 34363 PWs)   bands (ev):

   -18.0929 -18.0816 -17.7671 -17.7574 -14.0212 -13.9881 -13.9311 -13.9287
   -13.9073 -13.8996 -13.8974 -13.8915 -13.8723 -13.8694 -12.6064 -12.5578
   -11.7864 -11.5742 -11.4256 -11.3458 -11.3214 -11.3001 -11.0934 -11.0660
   -10.6894 -10.6398 -10.0857  -9.9358  -9.3849  -9.3624  -7.7491  -7.7179
    -7.3378  -7.2700  -6.3052  -6.1732  -5.7261  -5.6396  -4.8931  -4.8301
    -4.8248  -4.7335  -4.5035  -4.2407  -4.0881  -4.0660  -3.2563  -3.1061
    -2.9470  -2.9043  -2.8821  -2.8371  -2.8223  -2.6393  -2.4472  -2.3894
    -2.2775  -2.1855  -1.3486  -0.9341  -0.7301  -0.6584  -0.2555   0.2148
     0.3495   0.3742   0.4870   0.5130   0.5921   0.6015   0.6969   0.7243
     0.7355   0.8656   0.9557   1.0690   1.0798   1.0807   1.1185   1.1716
     1.2474   1.3346   5.8896   5.9922   6.2484   6.2838   6.6968   7.1244
     7.3460   7.4769   7.6201   7.6297   8.0878   8.2796   8.3871   8.4551
     8.4652   8.5476   8.6273   8.7351   8.8450   8.9910   9.1139   9.1252
     9.2338   9.3324   9.3562   9.4020   9.4567   9.5802   9.7168   9.7275
     9.7423   9.9614  10.0141  10.3747  10.4520  10.6750  10.6986  10.9019
    11.0802  11.1292  11.2210  11.2379  11.3295  11.4634  11.4916  11.5969
    11.6114  11.6570  11.7745  11.9744  11.9753  12.1354  12.1827  12.2507
    12.3512  12.3779  12.4988  12.5976  12.7779  12.8215  12.8329  12.8379
    12.9614  13.0334  13.3117  13.3633  13.6277  13.7349  13.9360  14.0505
    14.0723  14.2226  14.2318  14.2407  14.4064  14.5853  14.6828  14.7786
    14.9123  14.9382  14.9937  15.0602  15.3479  15.3587  15.6064  15.6606
    15.7163  15.8772  15.9006  16.0182  16.1935  16.2868  16.3723  16.4356
    16.4565  16.6414  16.7875  16.8240  16.8720  17.1176  17.4033  17.4054
    17.4622  17.5177  17.6074  17.7206  17.8239  17.9786  18.0019  18.0842
    18.1638  18.2738  18.3380  18.4076  18.4327  18.5339  18.6457  18.8055
    18.8741  18.9930  19.1863  19.2679  19.3215  19.3679  19.3980  19.4569
    19.5750  19.8054  19.8598  19.9463  19.9481  20.1926  20.2075  20.2804
    20.4030  20.4126  20.4246  20.4786  20.6050  20.6508  20.7185  20.7764
    20.8674  20.9180  20.9875  21.0759  21.1499  21.2872  21.3045  21.4303
    21.4404  21.5783  21.6682  21.6795  21.6999  21.9236  21.9653  22.1695
    22.2680  22.2918  22.5532  22.6541  22.6554  22.7065  22.7409  22.9169
    23.0611  23.1569  23.3590  23.3657  23.4199  23.4601  23.5275  23.8232
    23.8567  23.8951  23.9608  24.0443  24.1254  24.1312  24.2681  24.3281
    24.5534  24.5826  24.6379  24.6516  24.8097  24.8134  24.9359  24.9455
    25.1544  25.2464  25.4094  25.4865  25.5176  25.5232  25.6790  25.6998
    25.8644  26.0463  26.0672  26.1618  26.2256  26.2748  26.4477  26.5105
    26.5571  26.5671  26.8395  26.8779  26.8825  26.9248  27.0557  27.0964
    27.1706  27.2013  27.4731  27.5102  27.5814  27.6629  27.7359  27.8098
    27.8386  27.9972  28.0068  28.2293  28.2645  28.3941  28.4464  28.5319
    28.6581  28.6943  28.7181  28.7614  28.8432  28.8857  28.9907  29.0804
    29.2050  29.3011  29.3588  29.4067  29.4110  29.6196  29.7651  29.8369
    29.8576  29.9776

          k = 0.3709 0.0010-0.4465 ( 34400 PWs)   bands (ev):

   -18.0862 -18.0845 -17.7616 -17.7594 -13.9920 -13.9675 -13.9319 -13.9307
   -13.9048 -13.8996 -13.8981 -13.8938 -13.8718 -13.8698 -12.5889 -12.5726
   -11.7570 -11.5795 -11.4321 -11.3752 -11.3707 -11.3458 -11.0848 -11.0725
   -10.7227 -10.6364 -10.0926  -9.9892  -9.4050  -9.4012  -7.6444  -7.6366
    -7.2241  -7.2148  -6.2786  -6.2369  -5.7454  -5.6210  -5.1759  -5.0982
    -4.8716  -4.7786  -4.4976  -4.2509  -4.0988  -4.0761  -3.1826  -3.1321
    -3.0037  -2.9949  -2.8553  -2.8508  -2.7725  -2.6223  -2.4117  -2.3589
    -2.1780  -2.1714  -0.6057  -0.5920  -0.5086  -0.2118  -0.1490   0.0857
     0.1304   0.2248   0.3596   0.4589   0.5977   0.6186   0.6772   0.7240
     0.7765   0.8148   0.9463   1.0111   1.0161   1.0930   1.1411   1.1669
     1.3871   1.5163   5.7421   5.7677   5.9350   6.0804   6.3542   6.4755
     6.9645   7.4599   7.5667   7.8379   8.1176   8.1369   8.4241   8.4244
     8.6288   8.6306   8.7526   8.8533   9.0147   9.0243   9.0382   9.1382
     9.2466   9.3329   9.3996   9.4430   9.6375   9.6786   9.6837   9.8176
     9.8360  10.1375  10.1849  10.1859  10.2959  10.3555  10.4676  10.6683
    10.6741  10.8247  10.9306  10.9763  11.0895  11.1723  11.3264  11.4127
    11.4858  11.7477  11.8009  11.8203  11.8892  11.9142  12.0269  12.1921
    12.2869  12.3685  12.4323  12.6619  12.7607  12.8787  12.9096  12.9975
    13.2511  13.3751  13.4257  13.5205  13.7068  13.8016  13.9621  14.0740
    14.0825  14.2834  14.3097  14.5553  14.8248  14.8874  14.8933  14.9939
    15.0258  15.0898  15.2103  15.2624  15.4796  15.5620  15.7532  15.8010
    15.8601  15.9211  15.9503  16.1352  16.1681  16.1989  16.2762  16.5469
    16.5891  16.6722  16.7324  16.8182  16.9595  17.0450  17.1163  17.3314
    17.3448  17.5197  17.5950  17.6343  17.7446  17.7899  17.8309  17.9452
    18.0282  18.0857  18.1459  18.1916  18.4352  18.4590  18.5208  18.6569
    18.8737  18.9235  18.9972  19.1890  19.2058  19.4075  19.4105  19.5237
    19.5669  19.6252  19.8574  19.9745  20.0668  20.2152  20.2703  20.3347
    20.3925  20.4754  20.5942  20.6775  20.7254  20.9560  21.0033  21.0312
    21.1179  21.1491  21.3122  21.3815  21.5664  21.6099  21.6277  21.7106
    21.8255  21.8584  21.9359  22.0094  22.0669  22.2065  22.2459  22.3386
    22.3856  22.4028  22.5256  22.6239  22.7421  22.7601  22.9061  23.1105
    23.1239  23.2356  23.3127  23.3141  23.4586  23.5410  23.5601  23.7529
    23.7637  23.8578  23.8752  23.9974  24.0644  24.0668  24.0878  24.3567
    24.4833  24.5602  24.5694  24.8028  24.8576  24.8759  25.0165  25.0900
    25.1287  25.1981  25.3443  25.3855  25.4683  25.6118  25.6782  25.7691
    25.8541  25.9598  26.0684  26.0817  26.1949  26.2171  26.3649  26.4830
    26.5692  26.5788  26.6831  26.8065  26.8114  26.9052  26.9391  27.1057
    27.1392  27.2405  27.3550  27.4601  27.5287  27.6248  27.6301  27.7077
    27.8600  28.0832  28.1013  28.1374  28.2456  28.3014  28.3145  28.3729
    28.4396  28.5474  28.6392  28.6970  28.8268  28.8655  29.0426  29.0666
    29.1525  29.1658  29.2822  29.3519  29.3756  29.4018  29.4783  29.6058
    29.7264  29.8286

          k = 0.5558 0.0010-0.8938 ( 34437 PWs)   bands (ev):

   -18.0842 -18.0826 -17.7599 -17.7576 -13.9514 -13.9513 -13.9355 -13.9354
   -13.8993 -13.8993 -13.8992 -13.8992 -13.8707 -13.8707 -12.5880 -12.5717
   -11.6582 -11.6540 -11.4354 -11.4316 -11.4054 -11.3871 -11.0798 -11.0591
   -10.7560 -10.6427 -10.1349 -10.0084  -9.4324  -9.4261  -7.5484  -7.5415
    -7.1420  -7.1348  -6.3027  -6.2607  -5.7409  -5.6182  -5.3680  -5.3520
    -4.9147  -4.7991  -4.5086  -4.2508  -4.1094  -4.0929  -3.2429  -3.1459
    -2.9773  -2.9476  -2.9309  -2.8158  -2.7579  -2.6158  -2.3798  -2.3257
    -2.1358  -2.1058  -0.2864  -0.2696  -0.2563  -0.2094  -0.0726   0.0862
     0.0956   0.2465   0.4953   0.5215   0.6021   0.6496   0.6868   0.7434
     0.7927   0.8117   0.9492   1.0016   1.0139   1.0567   1.1358   1.1581
     1.7998   1.8472   4.5908   4.6167   5.8722   5.9507   5.9566   5.9645
     7.4201   7.6372   7.8082   7.9351   8.2267   8.3019   8.3937   8.4367
     8.6587   8.6708   8.7870   8.7983   9.0001   9.0345   9.1356   9.2216
     9.3359   9.3890   9.4302   9.4583   9.5184   9.6010   9.7722   9.7798
     9.9537  10.1069  10.1232  10.1911  10.2288  10.4120  10.4858  10.5130
    10.6081  10.7155  10.8984  10.9791  11.0514  11.1278  11.2086  11.2182
    11.2576  11.3910  11.4856  11.5554  11.5774  11.7339  11.8325  12.2899
    12.3107  12.5196  12.5251  12.6284  12.9178  12.9856  13.0174  13.0923
    13.1036  13.2209  13.3982  13.4872  13.5882  13.8979  13.9652  14.0265
    14.2635  14.3480  14.3835  14.5122  14.7324  14.7598  14.9961  15.0226
    15.1013  15.1195  15.2182  15.2201  15.3365  15.3994  15.4131  15.9146
    15.9345  16.0021  16.1094  16.2415  16.3566  16.3848  16.6165  16.6603
    16.7273  16.8403  16.8999  17.0103  17.1014  17.1823  17.2596  17.4098
    17.4136  17.5769  17.6005  17.7764  17.8676  17.9658  18.0399  18.1738
    18.1816  18.3253  18.3278  18.3944  18.6155  18.6413  18.6707  18.7514
    18.8430  18.9306  18.9772  19.0696  19.1924  19.2476  19.4470  19.6265
    19.6924  19.7217  19.8052  19.9630  19.9909  20.0656  20.1564  20.2785
    20.3837  20.4168  20.6312  20.6599  20.8375  20.8487  20.8546  21.0037
    21.0707  21.1352  21.2300  21.3223  21.4094  21.4709  21.5404  21.6720
    21.7805  21.8939  22.0110  22.0449  22.1511  22.2167  22.2882  22.3210
    22.5458  22.6830  22.6922  22.7806  22.9551  22.9725  23.0554  23.1718
    23.2108  23.3052  23.4517  23.4723  23.5448  23.6636  23.6891  23.7788
    23.8569  23.9547  24.0999  24.2224  24.2233  24.3164  24.3263  24.5644
    24.6492  24.7674  24.8340  24.8610  24.8618  24.8884  25.0413  25.1713
    25.2401  25.2656  25.3630  25.3916  25.4630  25.5352  25.5736  25.8070
    25.8405  25.9464  25.9675  26.0423  26.1725  26.2327  26.3086  26.4880
    26.5159  26.5944  26.7713  26.7733  26.8369  26.9301  27.0263  27.0279
    27.1738  27.2125  27.2949  27.3362  27.3728  27.4191  27.5500  27.6600
    27.7913  27.7973  27.8175  27.9492  28.0002  28.0897  28.1733  28.1777
    28.2672  28.3455  28.3769  28.5186  28.5841  28.7710  28.7857  28.8642
    28.9237  28.9967  29.2604  29.3349  29.3359  29.4307  29.5979  29.6006
    29.6791  29.7736

          k = 0.7407 0.0010-1.3410 ( 34419 PWs)   bands (ev):

   -18.0910 -18.0796 -17.7655 -17.7556 -13.9918 -13.9675 -13.9319 -13.9307
   -13.9048 -13.8996 -13.8981 -13.8938 -13.8718 -13.8698 -12.6055 -12.5569
   -11.7547 -11.5818 -11.4247 -11.3805 -11.3629 -11.3536 -11.0859 -11.0665
   -10.6966 -10.6691 -10.1278  -9.9561  -9.4152  -9.3895  -7.6551  -7.6218
    -7.2525  -7.1879  -6.3306  -6.1922  -5.7226  -5.6368  -5.1659  -5.0837
    -4.8477  -4.8177  -4.5203  -4.2403  -4.1050  -4.0716  -3.2608  -3.0424
    -3.0366  -2.9875  -2.8672  -2.8536  -2.7196  -2.6443  -2.4127  -2.3608
    -2.1938  -2.1579  -0.5978  -0.5728  -0.5383  -0.1744  -0.1739   0.1211
     0.1623   0.2442   0.3570   0.4451   0.5567   0.6273   0.6303   0.7458
     0.7475   0.7835   0.9398   0.9517   1.0213   1.1174   1.1685   1.1825
     1.4706   1.4772   5.7002   5.7374   5.9022   6.1017   6.4108   6.4775
     7.1231   7.2765   7.5581   7.7974   8.1637   8.2722   8.4734   8.5097
     8.6503   8.6709   8.7320   8.8340   8.8537   8.8976   9.1134   9.1878
     9.2083   9.2686   9.4049   9.4694   9.4703   9.7072   9.7771   9.8356
     9.8575   9.9097  10.1830  10.1961  10.2090  10.3235  10.4489  10.8491
    10.9097  10.9497  11.0585  11.0776  11.1812  11.1862  11.2780  11.3899
    11.4332  11.4559  11.6982  11.7361  11.8562  11.9673  12.1921  12.2263
    12.3079  12.4249  12.5700  12.6573  12.7555  12.7686  12.8255  12.9847
    13.1724  13.2981  13.4624  13.5324  13.6151  13.7208  13.8731  13.9017
    13.9811  14.3008  14.3732  14.4640  14.5779  14.6610  14.7978  15.0290
    15.1885  15.1927  15.2943  15.3140  15.4924  15.6438  15.6458  15.7140
    15.7617  15.9147  16.1013  16.2540  16.2957  16.3246  16.3783  16.5556
    16.6135  16.6166  16.7623  16.9276  17.0300  17.0419  17.0830  17.2108
    17.4047  17.5314  17.6388  17.6533  17.6687  17.9850  17.9989  18.1749
    18.1929  18.2765  18.3604  18.3808  18.4015  18.4715  18.8754  18.9918
    19.0017  19.0324  19.1397  19.1932  19.2168  19.2666  19.3308  19.3753
    19.4606  19.5047  19.5479  19.7831  20.0195  20.0697  20.1424  20.1612
    20.2279  20.4807  20.4874  20.6206  20.6959  20.7547  20.9070  21.0191
    21.1076  21.2203  21.2719  21.2919  21.4233  21.6208  21.6747  21.6882
    21.7195  21.7775  21.7900  21.9017  22.1926  22.1972  22.3556  22.3860
    22.4288  22.5430  22.5653  22.6093  22.6920  22.7391  22.7663  22.8580
    22.9532  23.0465  23.3038  23.3429  23.4064  23.5132  23.5239  23.6249
    23.7632  23.7875  23.8131  23.8797  23.8891  24.0269  24.1816  24.2244
    24.2850  24.3621  24.3790  24.7623  24.9518  25.0454  25.1197  25.1757
    25.2630  25.2692  25.3413  25.4842  25.6058  25.6117  25.7872  25.8059
    25.8448  26.0067  26.0423  26.2172  26.3820  26.4697  26.5493  26.6655
    26.6990  26.7711  26.7800  26.8312  26.9708  27.0541  27.1039  27.1425
    27.2074  27.3425  27.3814  27.4775  27.5479  27.5782  27.6131  27.6302
    27.9660  27.9817  28.0837  28.1214  28.1522  28.2358  28.2819  28.2849
    28.3294  28.5179  28.5457  28.6217  28.7971  28.8218  28.9354  28.9983
    29.1426  29.1979  29.3166  29.3284  29.5502  29.6310  29.6795  29.6939
    29.7205  29.8300

          k = 0.1860-0.1823 0.4480 ( 34401 PWs)   bands (ev):

   -18.0893 -18.0813 -17.7640 -17.7570 -13.9918 -13.9674 -13.9319 -13.9307
   -13.9048 -13.8996 -13.8981 -13.8938 -13.8718 -13.8698 -12.5982 -12.5639
   -11.7557 -11.5806 -11.4290 -11.3812 -11.3624 -11.3503 -11.0851 -11.0697
   -10.6919 -10.6740 -10.1008  -9.9790  -9.4118  -9.3936  -7.6510  -7.6276
    -7.2424  -7.1969  -6.3091  -6.2119  -5.7121  -5.6507  -5.1683  -5.0911
    -4.8525  -4.8233  -4.4682  -4.2731  -4.0996  -4.0759  -3.2230  -3.0865
    -3.0224  -2.9897  -2.8758  -2.8419  -2.7328  -2.6415  -2.4025  -2.3651
    -2.1877  -2.1624  -0.5995  -0.5840  -0.5174  -0.1964  -0.1599   0.1003
     0.1440   0.2329   0.3642   0.4529   0.5650   0.6115   0.6605   0.7284
     0.7711   0.8070   0.9377   0.9738   1.0159   1.1110   1.1300   1.1713
     1.4602   1.5154   5.7032   5.7444   5.9100   6.0604   6.3835   6.4812
     7.1384   7.3794   7.4657   7.8662   8.0940   8.2540   8.4626   8.5615
     8.6048   8.6625   8.7024   8.7983   8.9104   8.9296   9.0851   9.1523
     9.2513   9.2981   9.4240   9.4328   9.5216   9.6257   9.7649   9.7910
     9.8235  10.0626  10.1118  10.1885  10.3817  10.4176  10.4961  10.7351
    10.8423  10.9475  11.0121  11.0564  11.0943  11.1060  11.2246  11.4118
    11.5097  11.6071  11.6937  11.7721  11.8698  11.9740  12.0599  12.2580
    12.3566  12.4177  12.4361  12.6326  12.6647  12.7446  12.9526  12.9724
    13.2108  13.3090  13.4681  13.5759  13.6649  13.8446  13.8930  13.9537
    14.1555  14.2358  14.3806  14.4737  14.6421  14.6672  14.8208  14.9319
    15.1546  15.1933  15.2300  15.2923  15.4045  15.4920  15.6437  15.7446
    15.8130  15.9785  16.0802  16.1777  16.2571  16.3484  16.3926  16.5616
    16.6191  16.6960  16.8614  16.9465  17.0666  17.0887  17.1954  17.2487
    17.2613  17.3856  17.5310  17.6950  17.7479  17.9009  17.9862  18.0312
    18.0719  18.1755  18.2928  18.3344  18.4413  18.5460  18.6021  18.7267
    18.8121  19.0337  19.0572  19.2318  19.2734  19.3510  19.4188  19.4957
    19.5585  19.6661  19.7772  19.8837  19.9460  20.0052  20.0955  20.2217
    20.3684  20.4062  20.4900  20.5394  20.6034  20.7096  20.8236  20.9423
    21.0536  21.1450  21.2967  21.3531  21.4635  21.5353  21.6171  21.7225
    21.7894  21.8760  21.9196  22.0252  22.0870  22.1956  22.2984  22.3702
    22.4591  22.5653  22.6461  22.7260  22.7597  22.8951  22.9426  23.1265
    23.1632  23.2420  23.2712  23.2753  23.4531  23.5417  23.5705  23.6636
    23.7431  23.8073  23.9071  24.0329  24.0424  24.1122  24.2107  24.2927
    24.3455  24.4432  24.5942  24.7095  24.7771  24.8311  24.9173  25.0348
    25.0644  25.1819  25.2965  25.3587  25.6208  25.6302  25.6854  25.7882
    25.8488  25.9466  26.1219  26.1630  26.3005  26.3719  26.4087  26.4465
    26.4957  26.5607  26.7157  26.8131  26.9218  27.0078  27.0424  27.0976
    27.2049  27.2680  27.3442  27.4413  27.4618  27.6329  27.6652  27.7242
    27.8263  27.9052  27.9945  28.0774  28.2324  28.3121  28.3575  28.4246
    28.5390  28.6021  28.7532  28.7935  28.8530  28.8968  28.9964  29.0409
    29.1785  29.2791  29.3124  29.4016  29.4558  29.5324  29.6097  29.6313
    29.7191  29.7650

          k = 0.3709-0.1823 0.0007 ( 34370 PWs)   bands (ev):

   -18.0879 -18.0867 -17.7630 -17.7614 -14.0213 -13.9881 -13.9310 -13.9287
   -13.9073 -13.8996 -13.8974 -13.8915 -13.8723 -13.8694 -12.5877 -12.5758
   -11.7901 -11.5700 -11.4261 -11.3509 -11.3191 -11.2978 -11.0867 -11.0817
   -10.6836 -10.6398 -10.0386  -9.9788  -9.3750  -9.3738  -7.7385  -7.7314
    -7.3063  -7.2980  -6.2543  -6.2240  -5.7301  -5.6422  -4.9001  -4.8860
    -4.7893  -4.7251  -4.4387  -4.2794  -4.0939  -4.0676  -3.2101  -3.0710
    -2.9808  -2.9498  -2.8830  -2.8571  -2.8227  -2.6131  -2.4312  -2.4034
    -2.2472  -2.2094  -1.3819  -0.9068  -0.7250  -0.6320  -0.2823   0.1780
     0.3261   0.3958   0.4809   0.5235   0.5937   0.6245   0.6419   0.7410
     0.7877   0.8362   0.9865   1.0208   1.0473   1.0718   1.1363   1.1606
     1.2981   1.3649   5.8267   6.0319   6.1500   6.3610   6.7021   7.2346
     7.3394   7.4800   7.6599   7.7062   7.8844   8.1031   8.3585   8.4908
     8.5325   8.5509   8.6459   8.8183   8.8735   8.9593   8.9939   9.0691
     9.2789   9.2889   9.3958   9.4451   9.5139   9.5588   9.5903   9.7966
     9.7999  10.0450  10.1665  10.2255  10.5397  10.6711  10.8097  10.8448
    10.9939  11.1007  11.1163  11.2694  11.2729  11.3525  11.3994  11.4937
    11.5825  11.6231  11.6599  12.1336  12.1413  12.2177  12.2568  12.3507
    12.3926  12.4511  12.4602  12.5720  12.6266  12.7528  12.8001  12.8811
    13.0717  13.1610  13.3854  13.4848  13.6948  13.8430  13.8674  13.9960
    14.0144  14.0924  14.2453  14.3124  14.4294  14.5489  14.7259  14.7437
    14.9299  15.0168  15.1840  15.2628  15.4203  15.4276  15.5072  15.6645
    15.7420  15.7829  15.8264  16.0299  16.1697  16.1894  16.2853  16.4636
    16.5292  16.5991  16.6675  16.6862  16.9713  17.1565  17.1637  17.2652
    17.4221  17.4393  17.5640  17.7449  17.7763  17.8119  18.0157  18.0387
    18.1221  18.1760  18.2462  18.2660  18.3205  18.4858  18.4949  18.6951
    18.7656  18.8473  19.0028  19.1154  19.2849  19.3738  19.4196  19.6095
    19.6881  19.8214  19.8994  19.9027  19.9750  20.0153  20.0772  20.2445
    20.2810  20.3775  20.4571  20.5674  20.6477  20.7509  20.8938  20.9509
    20.9597  20.9770  21.0091  21.1576  21.2069  21.3837  21.4090  21.5444
    21.6997  21.7911  21.9180  22.0170  22.1737  22.2053  22.2109  22.2860
    22.3739  22.4224  22.5742  22.7282  22.7807  22.9076  22.9881  23.0638
    23.1167  23.1838  23.2849  23.3763  23.4485  23.4814  23.5038  23.5570
    23.6288  23.7915  23.8520  23.9457  24.1194  24.1264  24.2880  24.3493
    24.3663  24.5366  24.5457  24.6991  24.7201  24.8104  24.8501  24.9479
    25.2036  25.2186  25.2319  25.3537  25.4430  25.4806  25.5888  25.7144
    25.7504  25.9112  25.9666  26.0959  26.1868  26.2685  26.3032  26.4320
    26.5280  26.6413  26.6455  26.8145  26.9251  26.9724  26.9930  27.1516
    27.1665  27.3154  27.3397  27.3674  27.4933  27.4983  27.5988  27.7054
    27.8356  27.9655  28.0076  28.1504  28.2276  28.2575  28.3083  28.5054
    28.5070  28.5512  28.6146  28.7757  28.7938  28.8931  29.0638  29.0922
    29.2503  29.4070  29.4544  29.5181  29.5362  29.5650  29.5866  29.7188
    29.8139  29.9469

          k = 0.5558-0.1823-0.4465 ( 34414 PWs)   bands (ev):

   -18.0882 -18.0825 -17.7656 -17.7555 -13.9920 -13.9675 -13.9319 -13.9307
   -13.9048 -13.8996 -13.8981 -13.8938 -13.8718 -13.8698 -12.5860 -12.5749
   -11.7582 -11.5772 -11.4339 -11.3787 -11.3624 -11.3477 -11.1014 -11.0642
   -10.7445 -10.6065 -10.0548 -10.0291  -9.4099  -9.3971  -7.6575  -7.6228
    -7.2359  -7.2034  -6.2761  -6.2384  -5.7428  -5.6279  -5.1828  -5.0910
    -4.9083  -4.7529  -4.4394  -4.2923  -4.1178  -4.0631  -3.1554  -3.1478
    -3.0151  -2.9926  -2.8788  -2.8449  -2.7340  -2.6506  -2.3968  -2.3628
    -2.1822  -2.1671  -0.6125  -0.5989  -0.4821  -0.2409  -0.1381   0.0825
     0.1206   0.2117   0.3697   0.4694   0.5689   0.6192   0.6813   0.7377
     0.7953   0.8736   0.9152   0.9799   1.0294   1.0785   1.1132   1.1563
     1.4191   1.5320   5.7212   5.7825   5.9622   6.0129   6.3652   6.4701
     7.0428   7.5043   7.6227   7.8597   7.8853   8.1410   8.3124   8.4199
     8.5771   8.6539   8.7553   8.9047   8.9734   9.0003   9.1267   9.1684
     9.3223   9.3656   9.4168   9.5004   9.5960   9.6642   9.7313   9.7789
     9.9686  10.0333  10.0937  10.1932  10.3340  10.4114  10.4848  10.5675
    10.7777  10.8077  10.9132  10.9964  11.0873  11.1759  11.3532  11.3948
    11.4883  11.5274  11.7257  11.7808  11.8218  11.9492  12.0914  12.1975
    12.3773  12.4206  12.4280  12.5434  12.7179  12.9545  13.0112  13.0870
    13.1999  13.3792  13.4973  13.6390  13.8097  13.8455  13.9654  14.0174
    14.1331  14.2285  14.3581  14.5867  14.6703  14.7365  14.9122  14.9402
    15.0383  15.1210  15.2783  15.3953  15.4377  15.5377  15.5960  15.7299
    15.8096  15.9368  16.0323  16.1577  16.2574  16.3495  16.3934  16.5310
    16.5564  16.5942  16.6185  16.8759  16.9563  16.9969  17.0936  17.1039
    17.2584  17.4251  17.5016  17.5818  17.6591  17.8059  17.8111  17.9617
    18.0836  18.1229  18.2181  18.3509  18.4110  18.5332  18.6454  18.7907
    18.8340  18.9311  18.9389  19.0709  19.1133  19.3309  19.4025  19.4518
    19.6461  19.6636  19.9115  19.9433  20.0418  20.1292  20.2473  20.3618
    20.4164  20.4576  20.5294  20.6066  20.6600  20.7517  20.9399  21.0106
    21.0732  21.1955  21.3209  21.4088  21.4480  21.5844  21.6042  21.7259
    21.8249  21.8487  21.9934  22.0386  22.0953  22.2710  22.3236  22.4348
    22.5183  22.6205  22.6690  22.7185  22.7688  22.8938  22.9906  23.0771
    23.1070  23.2897  23.3362  23.3978  23.4542  23.5957  23.6103  23.6885
    23.8551  23.8828  24.0000  24.0472  24.1047  24.2544  24.3558  24.3962
    24.6064  24.6973  24.7668  24.7972  24.8267  24.9417  25.0375  25.1230
    25.1354  25.1810  25.2906  25.3294  25.4797  25.5503  25.5987  25.6683
    25.7345  25.9136  25.9744  26.0228  26.1276  26.1928  26.2458  26.3806
    26.4480  26.4750  26.5138  26.6342  26.7286  26.8157  26.9068  27.0970
    27.1515  27.2347  27.3028  27.3656  27.4405  27.4934  27.6242  27.7404
    27.8063  27.8933  27.9534  28.0692  28.2069  28.2472  28.3302  28.3690
    28.4323  28.5272  28.5864  28.6437  28.7209  28.8273  28.8408  29.0227
    29.1524  29.2211  29.3097  29.3600  29.4031  29.5231  29.6096  29.6838
    29.7882  29.8156

          k = 0.7407-0.1823-0.8938 ( 34435 PWs)   bands (ev):

   -18.0840 -18.0828 -17.7595 -17.7579 -13.9514 -13.9513 -13.9355 -13.9354
   -13.8993 -13.8993 -13.8992 -13.8992 -13.8707 -13.8707 -12.5857 -12.5741
   -11.6572 -11.6549 -11.4313 -11.4287 -11.4059 -11.3932 -11.0783 -11.0622
   -10.7409 -10.6618 -10.1137 -10.0246  -9.4313  -9.4268  -7.5475  -7.5426
    -7.1402  -7.1352  -6.3004  -6.2697  -5.7228  -5.6356  -5.3619  -5.3528
    -4.9026  -4.8227  -4.4614  -4.2829  -4.1104  -4.0994  -3.2477  -3.1572
    -2.9783  -2.9598  -2.8664  -2.8594  -2.7138  -2.6515  -2.3690  -2.3314
    -2.1309  -2.1096  -0.2783  -0.2665  -0.2555  -0.2136  -0.0703   0.0247
     0.1584   0.2375   0.4936   0.5157   0.5667   0.6573   0.6988   0.7649
     0.7721   0.8082   0.9772   0.9887   1.0129   1.0322   1.1508   1.1659
     1.8187   1.8449   4.5934   4.6090   5.8443   5.8817   5.9908   5.9914
     7.4917   7.6148   7.8632   8.0490   8.1372   8.2341   8.3440   8.3783
     8.7170   8.7449   8.7791   8.7839   8.9755   9.0081   9.1382   9.1729
     9.3618   9.3628   9.3863   9.4876   9.5432   9.5791   9.7014   9.8996
     9.9725  10.0311  10.0625  10.2030  10.2596  10.3450  10.5712  10.6221
    10.6475  10.7343  10.9529  11.0353  11.0853  11.0914  11.1731  11.3009
    11.3183  11.4398  11.4586  11.5130  11.6217  11.7190  11.7375  12.2077
    12.2317  12.3265  12.5068  12.6775  12.8640  12.9144  13.0759  13.1172
    13.1530  13.2856  13.3529  13.3873  13.7485  13.7589  13.9211  13.9783
    14.1861  14.3596  14.4458  14.5496  14.6085  14.6296  14.7714  15.1145
    15.2005  15.2590  15.2647  15.4606  15.5725  15.6041  15.7476  15.7860
    15.9371  15.9571  16.0801  16.1147  16.3096  16.3224  16.4475  16.5693
    16.7813  16.8217  16.8863  17.0915  17.1710  17.1928  17.2845  17.3333
    17.5010  17.6052  17.7123  17.7805  17.9397  18.0469  18.0489  18.0627
    18.0839  18.1572  18.3278  18.4118  18.4312  18.4900  18.6584  18.7432
    18.9737  19.0000  19.0323  19.0421  19.2225  19.3302  19.3531  19.4137
    19.6099  19.6230  19.6475  19.9727  20.0724  20.1480  20.1960  20.2801
    20.3690  20.4279  20.5411  20.5468  20.8224  20.8927  20.8999  20.9741
    21.1710  21.1750  21.2111  21.3477  21.5380  21.6198  21.6743  21.7598
    21.8446  21.8892  21.9619  21.9809  22.0076  22.2025  22.2052  22.4927
    22.5789  22.6183  22.7317  22.8083  22.8771  23.0863  23.1241  23.2572
    23.2918  23.3760  23.4048  23.4980  23.5417  23.5531  23.7031  23.7200
    23.8418  23.9090  24.1622  24.1713  24.2012  24.3846  24.4099  24.4112
    24.4923  24.6195  24.7766  24.7894  24.8422  24.9859  25.0136  25.2099
    25.2717  25.2944  25.3671  25.4346  25.4876  25.5346  25.5497  25.6055
    25.6825  25.8205  26.0442  26.1785  26.2048  26.2800  26.3321  26.4114
    26.6334  26.7192  26.7683  26.9069  26.9115  26.9657  27.0324  27.0681
    27.2115  27.2682  27.2717  27.3531  27.4503  27.4565  27.5794  27.6135
    27.7266  27.7508  27.8221  27.9320  28.0147  28.0495  28.0996  28.1754
    28.3516  28.3625  28.4800  28.5153  28.7341  28.7361  28.7847  28.9861
    29.0401  29.0817  29.2095  29.2960  29.3800  29.4189  29.4760  29.5839
    29.6020  29.7216

          k = 0.1860-0.3656 0.8952 ( 34433 PWs)   bands (ev):

   -18.0834 -18.0834 -17.7587 -17.7587 -13.9514 -13.9513 -13.9355 -13.9355
   -13.8993 -13.8993 -13.8992 -13.8992 -13.8707 -13.8707 -12.5799 -12.5799
   -11.6563 -11.6559 -11.4349 -11.4348 -11.3952 -11.3951 -11.0693 -11.0691
   -10.7049 -10.7043 -10.0670 -10.0665  -9.4290  -9.4290  -7.5450  -7.5449
    -7.1385  -7.1385  -6.2835  -6.2834  -5.6791  -5.6785  -5.3600  -5.3598
    -4.8723  -4.8716  -4.3673  -4.3663  -4.1003  -4.1001  -3.1951  -3.1947
    -2.9657  -2.9653  -2.8858  -2.8853  -2.6736  -2.6731  -2.3476  -2.3473
    -2.1198  -2.1196  -0.2746  -0.2739  -0.2376  -0.2375  -0.0338  -0.0330
     0.2122   0.2126   0.5094   0.5105   0.5946   0.5953   0.7462   0.7465
     0.7926   0.7928   0.9568   0.9570   1.0364   1.0365   1.1625   1.1626
     1.8373   1.8379   4.6030   4.6039   5.8289   5.8292   6.0113   6.0118
     7.5308   7.5319   8.0354   8.0370   8.2048   8.2060   8.3216   8.3229
     8.6439   8.6450   8.7859   8.7869   9.0104   9.0111   9.1441   9.1447
     9.3274   9.3281   9.4743   9.4751   9.5694   9.5711   9.8613   9.8622
    10.0189  10.0206  10.0853  10.0866  10.2603  10.2609  10.5855  10.5880
    10.7750  10.7752  10.9311  10.9318  11.0929  11.0939  11.2757  11.2771
    11.3968  11.3971  11.5427  11.5435  11.7430  11.7439  11.9260  11.9275
    12.1773  12.1793  12.4733  12.4766  12.9256  12.9284  13.0749  13.0759
    13.2527  13.2542  13.3585  13.3600  13.7836  13.7846  14.0145  14.0159
    14.2327  14.2337  14.4420  14.4431  14.5733  14.5740  14.9446  14.9462
    15.1199  15.1210  15.2923  15.2951  15.6267  15.6288  15.9248  15.9268
    16.0391  16.0399  16.2299  16.2313  16.3863  16.3868  16.4982  16.5000
    16.8273  16.8286  17.0325  17.0337  17.1710  17.1727  17.3607  17.3640
    17.4489  17.4500  17.5582  17.5598  17.7680  17.7699  18.0594  18.0605
    18.1198  18.1208  18.3473  18.3511  18.6062  18.6093  18.8246  18.8269
    18.9234  18.9258  19.0310  19.0341  19.1837  19.1865  19.3625  19.3642
    19.6626  19.6650  19.7064  19.7088  20.1578  20.1590  20.2889  20.2918
    20.4878  20.4898  20.7035  20.7049  20.8317  20.8354  21.0036  21.0053
    21.2538  21.2558  21.2842  21.2875  21.4078  21.4105  21.6121  21.6133
    21.7988  21.8008  21.9802  21.9822  22.1397  22.1422  22.4264  22.4301
    22.5012  22.5043  22.7408  22.7424  22.9059  22.9086  23.1406  23.1409
    23.3498  23.3513  23.4112  23.4129  23.6713  23.6733  23.7493  23.7517
    23.8609  23.8627  24.0038  24.0065  24.2570  24.2589  24.4019  24.4028
    24.6536  24.6563  24.7991  24.8009  24.9492  24.9509  25.0703  25.0738
    25.1322  25.1359  25.3757  25.3778  25.4608  25.4632  25.7630  25.7643
    25.9138  25.9158  26.0780  26.0806  26.2159  26.2192  26.4191  26.4210
    26.6657  26.6681  26.8589  26.8634  26.9582  26.9608  27.0964  27.1004
    27.2435  27.2471  27.3615  27.3670  27.4987  27.5002  27.6242  27.6287
    27.7149  27.7206  27.8731  27.8745  28.0742  28.0750  28.3118  28.3131
    28.3930  28.3955  28.4986  28.5027  28.7116  28.7142  28.9035  28.9048
    29.0148  29.0176  29.1786  29.1789  29.3216  29.3249  29.3748  29.3784
    29.5790  29.5801

          k = 0.3709-0.3656 0.4480 ( 34434 PWs)   bands (ev):

   -18.0854 -18.0853 -17.7605 -17.7605 -13.9918 -13.9674 -13.9319 -13.9307
   -13.9048 -13.8996 -13.8981 -13.8938 -13.8718 -13.8698 -12.5818 -12.5799
   -11.7567 -11.5795 -11.4325 -11.3845 -11.3580 -11.3492 -11.0787 -11.0783
   -10.6861 -10.6802 -10.0469 -10.0292  -9.4036  -9.4026  -7.6407  -7.6397
    -7.2192  -7.2190  -6.2632  -6.2561  -5.6861  -5.6806  -5.1726  -5.0974
    -4.8541  -4.8290  -4.3737  -4.3515  -4.0904  -4.0835  -3.1761  -3.1103
    -3.0233  -3.0030  -2.8859  -2.8531  -2.7036  -2.6608  -2.3811  -2.3807
    -2.1758  -2.1731  -0.5971  -0.5966  -0.4936  -0.2223  -0.1467   0.0819
     0.1242   0.2197   0.3727   0.4612   0.5743   0.6025   0.6695   0.7268
     0.7698   0.8967   0.9122   0.9828   1.0386   1.0490   1.1075   1.1609
     1.4701   1.5352   5.6999   5.7485   5.9470   5.9948   6.3577   6.4972
     7.2219   7.2818   7.5580   7.9237   7.9671   8.2109   8.4966   8.4987
     8.5748   8.6987   8.7265   8.8212   8.9110   8.9450   9.0505   9.1441
     9.2312   9.3223   9.4088   9.4344   9.6247   9.6793   9.6916   9.8113
     9.9163   9.9293  10.1925  10.2475  10.2829  10.4562  10.5622  10.7529
    10.8369  10.8618  10.9359  10.9948  11.0814  11.1177  11.2405  11.2750
    11.5691  11.6302  11.7250  11.7276  11.8672  12.0433  12.1513  12.2668
    12.2964  12.4185  12.4448  12.5811  12.7165  12.7694  12.8738  13.0821
    13.1688  13.3245  13.3390  13.6260  13.6714  13.9428  13.9862  14.1236
    14.1726  14.1736  14.3230  14.4957  14.5387  14.7386  14.8838  15.0263
    15.0539  15.1107  15.2205  15.3571  15.3607  15.5394  15.6516  15.7416
    15.8007  15.9290  16.0094  16.1691  16.2830  16.3214  16.4785  16.5256
    16.6930  16.6960  16.8527  16.8844  16.9482  17.1108  17.1328  17.2620
    17.3103  17.4116  17.5534  17.6135  17.7170  17.9097  17.9145  18.0012
    18.0627  18.0868  18.3233  18.3750  18.4764  18.6040  18.6441  18.6474
    18.6608  18.7974  19.0200  19.1405  19.2044  19.2129  19.4053  19.4965
    19.6058  19.7232  19.7989  19.9028  20.0483  20.0826  20.1769  20.2529
    20.3215  20.3957  20.4150  20.4816  20.6082  20.7434  20.8743  20.9430
    20.9896  21.0688  21.1771  21.2500  21.4839  21.5011  21.7679  21.9153
    21.9767  22.0535  22.1216  22.1277  22.1460  22.2472  22.4070  22.4399
    22.5797  22.5862  22.6090  22.7079  22.8597  22.9431  22.9637  23.0252
    23.0355  23.1896  23.3737  23.4122  23.4516  23.6391  23.6736  23.6775
    23.7585  23.7852  23.8693  23.9707  24.0465  24.3001  24.3088  24.3414
    24.4245  24.5363  24.6070  24.6988  24.7502  24.8655  24.8777  24.9436
    25.1588  25.1825  25.2163  25.3946  25.4001  25.5878  25.5907  25.6623
    25.8198  25.8460  26.0193  26.0789  26.0870  26.2235  26.3164  26.4276
    26.4626  26.5816  26.7622  26.7861  26.7888  27.0214  27.0333  27.1012
    27.1389  27.1829  27.2585  27.2710  27.5345  27.6197  27.6742  27.6848
    27.9883  27.9951  28.0943  28.1667  28.2340  28.2667  28.3960  28.4204
    28.4301  28.5451  28.6630  28.7904  28.8359  28.8745  28.9904  29.0630
    29.1188  29.1947  29.3706  29.3813  29.4856  29.5738  29.6125  29.6740
    29.6909  29.7433

          k = 0.5558-0.3656 0.0007 ( 34373 PWs)   bands (ev):

   -18.0921 -18.0824 -17.7684 -17.7562 -14.0213 -13.9881 -13.9310 -13.9287
   -13.9073 -13.8996 -13.8974 -13.8915 -13.8723 -13.8694 -12.5977 -12.5655
   -11.7901 -11.5687 -11.4273 -11.3517 -11.3174 -11.2954 -11.1056 -11.0669
   -10.7140 -10.6046 -10.0460  -9.9756  -9.3850  -9.3638  -7.7542  -7.7134
    -7.3312  -7.2754  -6.2838  -6.1929  -5.7055  -5.6675  -4.9123  -4.8877
    -4.7863  -4.7247  -4.3765  -4.3337  -4.1095  -4.0513  -3.2099  -3.0501
    -3.0129  -2.9550  -2.8786  -2.8522  -2.8175  -2.6142  -2.4289  -2.3993
    -2.2495  -2.2075  -1.3798  -0.9071  -0.7326  -0.6247  -0.2840   0.1921
     0.3138   0.3657   0.5249   0.5382   0.5804   0.6013   0.6529   0.7094
     0.8154   0.8552   0.9249   1.0062   1.0408   1.0759   1.1298   1.1693
     1.3474   1.3755   5.8328   6.0144   6.1149   6.3300   6.8492   7.1513
     7.3557   7.4895   7.6503   7.6996   7.8839   8.1797   8.3555   8.4461
     8.5216   8.5337   8.5639   8.6873   8.8911   8.9615   8.9971   9.1422
     9.3158   9.3355   9.4320   9.4419   9.4811   9.6774   9.6958   9.7631
     9.8430   9.8813  10.1354  10.3115  10.3594  10.6190  10.7756  10.9378
    10.9996  11.1113  11.1798  11.2764  11.2841  11.3565  11.4692  11.5142
    11.5331  11.6676  11.7347  11.9417  12.0040  12.1370  12.1377  12.3822
    12.4412  12.4705  12.5795  12.7058  12.7729  12.8041  12.9447  12.9770
    13.0320  13.3315  13.3659  13.4828  13.5719  13.6431  13.7474  13.8829
    13.9258  14.1301  14.1397  14.2308  14.3789  14.4994  14.6189  14.7319
    14.9583  15.0960  15.1122  15.3073  15.3310  15.4441  15.5197  15.6406
    15.7313  15.8040  15.9364  15.9742  16.2334  16.3059  16.4811  16.4892
    16.5197  16.5917  16.8406  16.8834  17.0303  17.0534  17.2944  17.3186
    17.4173  17.5552  17.6070  17.6096  17.6955  17.7801  17.9400  18.0130
    18.0681  18.1029  18.1707  18.3034  18.4174  18.4892  18.6268  18.6387
    18.8156  18.9533  18.9690  19.0202  19.2017  19.2693  19.3334  19.4629
    19.5292  19.7019  19.8693  19.8894  19.9289  19.9979  20.0005  20.1969
    20.3555  20.3878  20.4746  20.5541  20.6104  20.7013  20.7395  20.8694
    21.0412  21.1152  21.1714  21.2651  21.4164  21.4550  21.5069  21.5299
    21.9067  21.9731  21.9852  22.0207  22.1500  22.2080  22.3692  22.4138
    22.4163  22.5163  22.5230  22.6026  22.7063  22.7085  22.9385  22.9745
    23.0417  23.2098  23.2832  23.3703  23.4161  23.4325  23.4914  23.5333
    23.6270  23.6575  23.8001  23.9012  24.0195  24.2047  24.2388  24.2554
    24.3192  24.5455  24.5629  24.5692  24.7080  24.8317  24.9124  24.9631
    25.0349  25.0759  25.2302  25.3138  25.3443  25.5047  25.6389  25.7177
    25.7579  26.0144  26.0375  26.0791  26.2190  26.2797  26.4502  26.5195
    26.6785  26.7040  26.7733  26.8292  26.8744  26.9377  26.9713  27.0799
    27.2258  27.3327  27.3880  27.5110  27.5545  27.6781  27.7177  27.7206
    27.8603  27.9824  28.0942  28.1784  28.1899  28.2323  28.4788  28.4967
    28.5280  28.6637  28.6828  28.7542  28.8805  28.9850  29.0483  29.1213
    29.1815  29.2809  29.3138  29.3982  29.4743  29.4887  29.6393  29.7985
    29.8687  29.8755

          k = 0.7407-0.3656-0.4465 ( 34406 PWs)   bands (ev):

   -18.0901 -18.0804 -17.7666 -17.7545 -13.9920 -13.9675 -13.9319 -13.9307
   -13.9048 -13.8996 -13.8981 -13.8938 -13.8718 -13.8698 -12.5967 -12.5646
   -11.7571 -11.5783 -11.4314 -11.3794 -11.3566 -11.3538 -11.1003 -11.0628
   -10.7340 -10.6235 -10.0755 -10.0061  -9.4139  -9.3920  -7.6600  -7.6188
    -7.2480  -7.1924  -6.3075  -6.2123  -5.7025  -5.6645  -5.1736  -5.0825
    -4.9071  -4.7788  -4.3795  -4.3453  -4.1187  -4.0634  -3.1977  -3.1196
    -3.0163  -2.9880  -2.8858  -2.8233  -2.7231  -2.6641  -2.3800  -2.3773
    -2.1898  -2.1606  -0.6023  -0.6007  -0.4945  -0.2199  -0.1548   0.0927
     0.1383   0.2247   0.3741   0.4640   0.5435   0.5855   0.7196   0.7286
     0.7954   0.8123   0.9235   0.9513   1.0008   1.1146   1.1228   1.1616
     1.4745   1.5347   5.6971   5.7542   5.9199   6.0134   6.4082   6.4605
     7.2305   7.4202   7.5017   7.8823   7.9178   8.2803   8.3836   8.3839
     8.5752   8.6630   8.7641   8.7657   8.9140   9.0542   9.1568   9.1828
     9.2535   9.3492   9.4198   9.4739   9.5074   9.6456   9.7041   9.7625
     9.8194  10.0859  10.1321  10.2592  10.3947  10.4218  10.5320  10.6990
    10.7269  10.9029  11.0217  11.0854  11.0881  11.2105  11.2129  11.4631
    11.5241  11.5796  11.6516  11.6628  11.9029  11.9830  12.0121  12.1632
    12.3002  12.3434  12.4943  12.5140  12.6746  12.7618  12.9056  13.1371
    13.3692  13.4080  13.5087  13.7054  13.8159  13.8559  13.8865  14.0127
    14.0860  14.2877  14.3482  14.4823  14.5612  14.6410  14.7805  14.8336
    15.0738  15.1763  15.2133  15.2984  15.3836  15.5414  15.6518  15.7489
    15.9280  16.0269  16.0676  16.1483  16.2010  16.4188  16.4345  16.4772
    16.5580  16.7154  16.7394  16.7867  16.9211  17.0681  17.2188  17.2305
    17.3653  17.4002  17.5982  17.6654  17.7031  17.7931  17.8404  17.9242
    18.0733  18.1530  18.3886  18.4101  18.6385  18.6399  18.7632  18.8453
    18.9010  18.9834  19.1060  19.1711  19.2454  19.2629  19.3953  19.4453
    19.5568  19.6324  19.6460  19.6967  19.8982  20.0050  20.0625  20.1091
    20.2976  20.4262  20.5044  20.5769  20.6565  20.7051  20.7644  21.0666
    21.0739  21.1733  21.1789  21.2499  21.4236  21.4667  21.5948  21.6248
    21.8142  21.8305  21.8979  21.9544  22.1209  22.1381  22.2511  22.4253
    22.5290  22.5984  22.7071  22.8272  22.9423  23.0555  23.0730  23.1780
    23.3542  23.3882  23.4715  23.4995  23.5194  23.6489  23.7010  23.7511
    23.8389  23.9166  23.9680  24.0170  24.1353  24.2445  24.2955  24.3624
    24.4733  24.4971  24.6162  24.6598  24.6928  24.8859  25.0276  25.1153
    25.2093  25.2592  25.3037  25.3435  25.3475  25.4585  25.6160  25.6308
    25.7178  25.7825  25.8501  26.0209  26.0641  26.0948  26.2848  26.3759
    26.4325  26.6944  26.7408  26.8454  26.9083  26.9808  27.0005  27.0398
    27.1115  27.1646  27.2424  27.3181  27.4156  27.5822  27.6201  27.6943
    27.7086  27.7312  27.9585  27.9859  28.1551  28.2888  28.3277  28.4218
    28.5316  28.6175  28.7126  28.8196  28.8662  28.9233  29.0044  29.1444
    29.2097  29.2211  29.3453  29.4170  29.4586  29.5018  29.6293  29.6639
    29.7747  29.8461

          k = 0.1860-0.5489 1.3424 ( 34400 PWs)   bands (ev):

   -18.0893 -18.0813 -17.7640 -17.7570 -13.9920 -13.9675 -13.9319 -13.9307
   -13.9048 -13.8996 -13.8981 -13.8938 -13.8718 -13.8698 -12.5981 -12.5639
   -11.7559 -11.5805 -11.4290 -11.3810 -11.3621 -11.3501 -11.0852 -11.0697
   -10.6922 -10.6735 -10.1004  -9.9792  -9.4116  -9.3935  -7.6515  -7.6280
    -7.2428  -7.1973  -6.3090  -6.2119  -5.7117  -5.6512  -5.1672  -5.0898
    -4.8529  -4.8228  -4.4673  -4.2737  -4.0996  -4.0758  -3.2227  -3.0864
    -3.0227  -2.9896  -2.8759  -2.8417  -2.7327  -2.6418  -2.4025  -2.3654
    -2.1880  -2.1626  -0.6006  -0.5877  -0.5179  -0.1972  -0.1633   0.1009
     0.1447   0.2338   0.3649   0.4535   0.5650   0.6107   0.6609   0.7284
     0.7710   0.8074   0.9380   0.9739   1.0158   1.1111   1.1293   1.1712
     1.4598   1.5147   5.7057   5.7470   5.9107   6.0607   6.3889   6.4847
     7.1383   7.3787   7.4635   7.8663   8.0923   8.2538   8.4631   8.5614
     8.6038   8.6611   8.7023   8.7979   8.9104   8.9291   9.0845   9.1541
     9.2509   9.2974   9.4249   9.4338   9.5207   9.6246   9.7646   9.7902
     9.8231  10.0630  10.1129  10.1879  10.3820  10.4198  10.4989  10.7336
    10.8424  10.9466  11.0143  11.0569  11.0954  11.1072  11.2245  11.4132
    11.5100  11.6077  11.6941  11.7721  11.8713  11.9741  12.0605  12.2581
    12.3565  12.4186  12.4370  12.6327  12.6649  12.7446  12.9539  12.9707
    13.2105  13.3082  13.4676  13.5757  13.6666  13.8483  13.8906  13.9532
    14.1564  14.2344  14.3801  14.4744  14.6381  14.6683  14.8197  14.9308
    15.1518  15.1920  15.2297  15.2940  15.4021  15.4926  15.6405  15.7426
    15.8145  15.9797  16.0786  16.1757  16.2576  16.3504  16.3946  16.5642
    16.6166  16.6959  16.8612  16.9477  17.0648  17.0890  17.1968  17.2499
    17.2598  17.3833  17.5308  17.6931  17.7465  17.9005  17.9863  18.0293
    18.0701  18.1765  18.2933  18.3336  18.4423  18.5458  18.6034  18.7250
    18.8102  19.0368  19.0578  19.2266  19.2741  19.3493  19.4182  19.4980
    19.5588  19.6658  19.7773  19.8814  19.9459  20.0048  20.0941  20.2249
    20.3673  20.4063  20.4895  20.5379  20.6025  20.7112  20.8251  20.9405
    21.0526  21.1439  21.2963  21.3522  21.4606  21.5340  21.6175  21.7213
    21.7873  21.8763  21.9213  22.0252  22.0864  22.1979  22.2981  22.3717
    22.4585  22.5668  22.6427  22.7303  22.7610  22.8944  22.9430  23.1255
    23.1641  23.2423  23.2723  23.2792  23.4523  23.5421  23.5693  23.6644
    23.7441  23.8080  23.9057  24.0337  24.0451  24.1149  24.2108  24.2932
    24.3453  24.4418  24.5934  24.7065  24.7768  24.8288  24.9160  25.0332
    25.0617  25.1821  25.2938  25.3565  25.6216  25.6321  25.6808  25.7888
    25.8511  25.9465  26.1224  26.1617  26.2949  26.3710  26.4030  26.4477
    26.4932  26.5597  26.7177  26.8138  26.9235  27.0074  27.0439  27.0960
    27.2057  27.2703  27.3435  27.4414  27.4655  27.6338  27.6643  27.7225
    27.8282  27.9013  27.9929  28.0826  28.2350  28.3134  28.3578  28.4258
    28.5390  28.6005  28.7564  28.7956  28.8523  28.8953  28.9932  29.0423
    29.1747  29.2807  29.3105  29.4048  29.4526  29.5327  29.6138  29.6323
    29.7196  29.7682

          k = 0.3709-0.5489 0.8952 ( 34432 PWs)   bands (ev):

   -18.0840 -18.0829 -17.7594 -17.7579 -13.9514 -13.9513 -13.9355 -13.9354
   -13.8993 -13.8993 -13.8992 -13.8992 -13.8707 -13.8707 -12.5855 -12.5741
   -11.6578 -11.6543 -11.4387 -11.4367 -11.3988 -11.3862 -11.0749 -11.0618
   -10.7426 -10.6627 -10.1133 -10.0249  -9.4315  -9.4269  -7.5472  -7.5425
    -7.1417  -7.1367  -6.2943  -6.2658  -5.7221  -5.6361  -5.3694  -5.3558
    -4.9049  -4.8302  -4.4613  -4.2846  -4.1024  -4.0905  -3.1969  -3.1761
    -2.9668  -2.9578  -2.9367  -2.8614  -2.7236  -2.6197  -2.3686  -2.3310
    -2.1307  -2.1097  -0.2856  -0.2728  -0.2505  -0.2221  -0.0581   0.0176
     0.1625   0.2409   0.5086   0.5153   0.6081   0.6250   0.7098   0.7409
     0.7931   0.8154   0.9229   0.9776   1.0284   1.0635   1.1441   1.1599
     1.8102   1.8485   4.5959   4.6161   5.8368   5.8782   5.9891   6.0122
     7.4192   7.5903   7.9399   7.9602   8.2375   8.3309   8.3449   8.4660
     8.5185   8.6279   8.7160   8.8533   8.9794   9.0501   9.1678   9.2140
     9.2672   9.3707   9.4842   9.4900   9.5778   9.6162   9.8111   9.8670
     9.9403  10.0442  10.0759  10.1187  10.2982  10.3041  10.3976  10.5830
    10.6955  10.8078  10.8674  10.9176  11.0727  11.1793  11.2071  11.2754
    11.2850  11.4720  11.4821  11.5321  11.7094  11.7687  11.8518  12.1248
    12.1271  12.2983  12.6687  12.6768  12.8263  12.9800  13.0011  13.0628
    13.1777  13.2332  13.3901  13.3970  13.8015  13.8884  14.0048  14.0321
    14.0619  14.3524  14.3612  14.5752  14.6636  14.7645  14.7963  14.8886
    15.0140  15.1637  15.1717  15.3826  15.4251  15.5039  15.6849  15.7836
    16.0199  16.0470  16.1712  16.3016  16.3805  16.4256  16.4899  16.7179
    16.8454  16.9002  16.9486  17.0304  17.0477  17.2421  17.2455  17.3800
    17.4918  17.4953  17.6033  17.6761  17.7956  17.8820  18.0722  18.1145
    18.1330  18.1648  18.2551  18.3435  18.4853  18.5574  18.6262  18.7530
    18.9434  19.0620  19.0808  19.1945  19.2176  19.2623  19.3867  19.4174
    19.6024  19.6845  19.9083  19.9518  20.0324  20.1979  20.2672  20.3463
    20.4261  20.5309  20.6075  20.7133  20.7417  20.7949  20.9354  21.0888
    21.1361  21.1932  21.2870  21.3187  21.3975  21.4515  21.5783  21.6150
    21.7797  21.8874  21.9129  22.0258  22.0864  22.1748  22.2905  22.3332
    22.4970  22.5054  22.6651  22.7814  22.8362  22.9792  23.0095  23.0738
    23.1654  23.2430  23.4188  23.5044  23.5429  23.6497  23.7368  23.7845
    23.9861  24.0708  24.1223  24.2106  24.2347  24.2899  24.3632  24.5110
    24.5536  24.7135  24.7389  24.8202  24.8487  24.8769  25.1309  25.1659
    25.2155  25.3195  25.3286  25.5015  25.5793  25.6909  25.7583  25.7815
    25.8145  25.9580  25.9733  26.0714  26.2211  26.2492  26.3191  26.3882
    26.4112  26.5572  26.5650  26.7669  26.8167  26.8550  27.0704  27.1351
    27.2435  27.2666  27.3625  27.3868  27.4837  27.5537  27.5876  27.6772
    27.7515  27.8269  27.9058  27.9370  28.0685  28.1168  28.1239  28.1439
    28.3493  28.3637  28.3819  28.5708  28.6679  28.7420  28.8872  28.9440
    29.0476  29.0929  29.1505  29.2003  29.2854  29.3741  29.5336  29.5796
    29.6896  29.7752

          k = 0.5558-0.5489 0.4480 ( 34402 PWs)   bands (ev):

   -18.0893 -18.0813 -17.7640 -17.7570 -13.9918 -13.9674 -13.9319 -13.9307
   -13.9048 -13.8996 -13.8981 -13.8938 -13.8718 -13.8698 -12.5982 -12.5638
   -11.7557 -11.5806 -11.4290 -11.3812 -11.3623 -11.3504 -11.0852 -11.0696
   -10.6925 -10.6734 -10.1007  -9.9791  -9.4118  -9.3936  -7.6511  -7.6275
    -7.2425  -7.1967  -6.3093  -6.2118  -5.7116  -5.6512  -5.1684  -5.0910
    -4.8532  -4.8229  -4.4674  -4.2736  -4.0999  -4.0757  -3.2232  -3.0862
    -3.0227  -2.9896  -2.8760  -2.8416  -2.7324  -2.6419  -2.4023  -2.3652
    -2.1878  -2.1623  -0.5995  -0.5840  -0.5173  -0.1965  -0.1600   0.1004
     0.1440   0.2329   0.3643   0.4530   0.5649   0.6105   0.6611   0.7287
     0.7709   0.8070   0.9373   0.9737   1.0158   1.1111   1.1298   1.1712
     1.4610   1.5155   5.7028   5.7443   5.9098   6.0599   6.3839   6.4812
     7.1414   7.3790   7.4643   7.8667   8.0927   8.2542   8.4639   8.5616
     8.6035   8.6609   8.7026   8.7979   8.9107   8.9300   9.0856   9.1532
     9.2513   9.2983   9.4241   9.4338   9.5201   9.6249   9.7646   9.7908
     9.8231  10.0618  10.1129  10.1876  10.3824  10.4186  10.4974  10.7346
    10.8431  10.9469  11.0143  11.0569  11.0953  11.1072  11.2230  11.4126
    11.5102  11.6058  11.6920  11.7705  11.8686  11.9730  12.0598  12.2567
    12.3575  12.4192  12.4376  12.6313  12.6645  12.7433  12.9551  12.9709
    13.2128  13.3073  13.4683  13.5772  13.6665  13.8466  13.8922  13.9517
    14.1578  14.2342  14.3799  14.4720  14.6421  14.6665  14.8210  14.9304
    15.1536  15.1905  15.2304  15.2933  15.4044  15.4913  15.6427  15.7446
    15.8144  15.9801  16.0802  16.1775  16.2584  16.3503  16.3942  16.5611
    16.6166  16.6950  16.8616  16.9470  17.0674  17.0869  17.1981  17.2497
    17.2598  17.3864  17.5301  17.6953  17.7482  17.9013  17.9859  18.0305
    18.0729  18.1780  18.2920  18.3378  18.4391  18.5496  18.6048  18.7278
    18.8126  19.0374  19.0582  19.2282  19.2752  19.3489  19.4151  19.4979
    19.5560  19.6664  19.7784  19.8804  19.9418  20.0042  20.0912  20.2271
    20.3657  20.4080  20.4845  20.5374  20.6028  20.7113  20.8240  20.9399
    21.0559  21.1416  21.2961  21.3521  21.4624  21.5331  21.6168  21.7188
    21.7898  21.8739  21.9206  22.0269  22.0879  22.1979  22.3023  22.3714
    22.4550  22.5651  22.6446  22.7333  22.7618  22.8929  22.9444  23.1242
    23.1639  23.2461  23.2749  23.2775  23.4534  23.5453  23.5695  23.6632
    23.7442  23.8096  23.9045  24.0343  24.0447  24.1148  24.2102  24.2956
    24.3469  24.4445  24.5917  24.7080  24.7790  24.8277  24.9194  25.0342
    25.0632  25.1814  25.2936  25.3557  25.6190  25.6301  25.6828  25.7871
    25.8496  25.9483  26.1233  26.1615  26.2977  26.3727  26.4020  26.4462
    26.4950  26.5615  26.7152  26.8125  26.9206  27.0071  27.0441  27.0950
    27.2067  27.2673  27.3441  27.4375  27.4684  27.6341  27.6662  27.7275
    27.8289  27.8995  27.9948  28.0780  28.2322  28.3107  28.3594  28.4265
    28.5396  28.5998  28.7552  28.7960  28.8508  28.8928  28.9930  29.0401
    29.1768  29.2773  29.3123  29.4044  29.4525  29.5305  29.6140  29.6289
    29.7215  29.7703

          k = 0.7407-0.5489 0.0007 ( 34335 PWs)   bands (ev):

   -18.0945 -18.0797 -17.7701 -17.7546 -14.0212 -13.9881 -13.9311 -13.9287
   -13.9073 -13.8996 -13.8974 -13.8915 -13.8723 -13.8694 -12.6106 -12.5534
   -11.7865 -11.5731 -11.4268 -11.3468 -11.3196 -11.2978 -11.1037 -11.0594
   -10.7195 -10.6048 -10.0905  -9.9351  -9.3891  -9.3581  -7.7578  -7.7064
[...]
    13.0703  13.1652  13.3836  13.4836  13.6948  13.8384  13.8644  13.9931
    14.0116  14.0932  14.2417  14.3140  14.4287  14.5463  14.7257  14.7440
    14.9294  15.0168  15.1840  15.2633  15.4190  15.4268  15.5108  15.6629
    15.7426  15.7859  15.8260  16.0288  16.1744  16.1905  16.2874  16.4642
    16.5321  16.6027  16.6695  16.6871  16.9727  17.1604  17.1671  17.2653
    17.4246  17.4361  17.5604  17.7466  17.7743  17.8102  18.0201  18.0436
    18.1234  18.1765  18.2461  18.2650  18.3226  18.4832  18.4944  18.6893
    18.7676  18.8461  19.0003  19.1094  19.2851  19.3725  19.4161  19.6110
    19.6833  19.8261  19.8991  19.9022  19.9742  20.0158  20.0740  20.2462
    20.2828  20.3814  20.4622  20.5664  20.6494  20.7481  20.8871  20.9482
    20.9571  20.9783  21.0148  21.1524  21.2051  21.3850  21.4139  21.5441
    21.7011  21.7884  21.9198  22.0183  22.1727  22.2013  22.2082  22.2858
    22.3760  22.4214  22.5778  22.7250  22.7828  22.9060  22.9880  23.0619
    23.1168  23.1898  23.2904  23.3785  23.4488  23.4776  23.5065  23.5541
    23.6274  23.7867  23.8471  23.9474  24.1170  24.1219  24.2871  24.3445
    24.3611  24.5386  24.5401  24.7012  24.7151  24.8134  24.8521  24.9472
    25.2009  25.2207  25.2286  25.3550  25.4421  25.4826  25.5906  25.7157
    25.7549  25.9116  25.9649  26.0934  26.1898  26.2686  26.3084  26.4352
    26.5328  26.6401  26.6448  26.8087  26.9219  26.9706  26.9973  27.1523
    27.1737  27.3194  27.3407  27.3711  27.4968  27.5022  27.5981  27.7029
    27.8346  27.9678  28.0060  28.1531  28.2234  28.2586  28.3080  28.5056
    28.5130  28.5572  28.6121  28.7779  28.7958  28.8927  29.0658  29.0886
    29.2512  29.4029  29.4513  29.5162  29.5460  29.5646  29.5852  29.7167
    29.8232  29.9516

          k = 1.2954 0.1843-0.4465 ( 34401 PWs)   bands (ev):

   -18.0893 -18.0813 -17.7640 -17.7570 -13.9920 -13.9676 -13.9319 -13.9307
   -13.9048 -13.8996 -13.8981 -13.8938 -13.8718 -13.8698 -12.5982 -12.5638
   -11.7559 -11.5805 -11.4290 -11.3810 -11.3620 -11.3502 -11.0853 -11.0696
   -10.6926 -10.6731 -10.1006  -9.9790  -9.4117  -9.3934  -7.6517  -7.6279
    -7.2430  -7.1971  -6.3093  -6.2116  -5.7115  -5.6513  -5.1672  -5.0896
    -4.8532  -4.8226  -4.4674  -4.2736  -4.0998  -4.0756  -3.2231  -3.0860
    -3.0229  -2.9895  -2.8759  -2.8416  -2.7325  -2.6420  -2.4025  -2.3654
    -2.1882  -2.1625  -0.6006  -0.5877  -0.5181  -0.1970  -0.1634   0.1011
     0.1448   0.2339   0.3649   0.4534   0.5649   0.6103   0.6610   0.7287
     0.7710   0.8070   0.9377   0.9739   1.0158   1.1112   1.1296   1.1713
     1.4602   1.5145   5.7055   5.7469   5.9105   6.0609   6.3893   6.4846
     7.1395   7.3777   7.4634   7.8659   8.0925   8.2541   8.4637   8.5616
     8.6033   8.6608   8.7015   8.7979   8.9110   8.9287   9.0854   9.1543
     9.2511   9.2974   9.4238   9.4348   9.5197   9.6242   9.7649   9.7905
     9.8225  10.0618  10.1131  10.1879  10.3828  10.4196  10.4986  10.7336
    10.8436  10.9467  11.0153  11.0579  11.0959  11.1081  11.2241  11.4136
    11.5101  11.6067  11.6931  11.7711  11.8704  11.9742  12.0597  12.2576
    12.3574  12.4194  12.4379  12.6319  12.6645  12.7438  12.9546  12.9710
    13.2122  13.3074  13.4677  13.5757  13.6669  13.8475  13.8903  13.9524
    14.1564  14.2334  14.3799  14.4717  14.6404  14.6674  14.8201  14.9299
    15.1526  15.1918  15.2297  15.2938  15.4017  15.4917  15.6403  15.7444
    15.8144  15.9794  16.0789  16.1763  16.2582  16.3511  16.3963  16.5634
    16.6155  16.6945  16.8618  16.9478  17.0650  17.0873  17.1971  17.2506
    17.2594  17.3853  17.5302  17.6950  17.7459  17.9008  17.9861  18.0298
    18.0712  18.1782  18.2930  18.3369  18.4395  18.5488  18.6043  18.7276
    18.8119  19.0378  19.0577  19.2266  19.2757  19.3490  19.4164  19.4980
    19.5551  19.6665  19.7782  19.8802  19.9428  20.0036  20.0903  20.2289
    20.3664  20.4088  20.4842  20.5368  20.6026  20.7127  20.8243  20.9402
    21.0557  21.1421  21.2963  21.3516  21.4617  21.5322  21.6161  21.7177
    21.7871  21.8744  21.9207  22.0264  22.0865  22.1979  22.3001  22.3724
    22.4548  22.5656  22.6422  22.7343  22.7620  22.8924  22.9425  23.1227
    23.1649  23.2448  23.2739  23.2787  23.4522  23.5444  23.5687  23.6633
    23.7442  23.8092  23.9028  24.0331  24.0457  24.1151  24.2096  24.2957
    24.3460  24.4423  24.5926  24.7058  24.7781  24.8254  24.9178  25.0346
    25.0623  25.1813  25.2934  25.3554  25.6192  25.6329  25.6811  25.7893
    25.8518  25.9482  26.1235  26.1627  26.2951  26.3725  26.4021  26.4476
    26.4941  26.5622  26.7157  26.8131  26.9223  27.0088  27.0443  27.0944
    27.2077  27.2691  27.3433  27.4383  27.4701  27.6344  27.6658  27.7251
    27.8289  27.9000  27.9953  28.0811  28.2337  28.3118  28.3584  28.4265
    28.5395  28.5986  28.7547  28.7953  28.8518  28.8936  28.9908  29.0411
    29.1753  29.2788  29.3130  29.4065  29.4509  29.5317  29.6147  29.6301
    29.7208  29.7720

          k = 0.7407 0.0010 1.3424 ( 34416 PWs)   bands (ev):

   -18.0910 -18.0796 -17.7655 -17.7556 -13.9920 -13.9676 -13.9319 -13.9307
   -13.9048 -13.8996 -13.8981 -13.8938 -13.8718 -13.8698 -12.6056 -12.5569
   -11.7549 -11.5817 -11.4247 -11.3803 -11.3626 -11.3533 -11.0860 -11.0665
   -10.6967 -10.6688 -10.1276  -9.9559  -9.4151  -9.3893  -7.6556  -7.6222
    -7.2530  -7.1882  -6.3306  -6.1920  -5.7225  -5.6369  -5.1647  -5.0823
    -4.8478  -4.8174  -4.5203  -4.2403  -4.1049  -4.0715  -3.2608  -3.0420
    -3.0372  -2.9873  -2.8669  -2.8537  -2.7198  -2.6444  -2.4129  -2.3609
    -2.1942  -2.1580  -0.5987  -0.5767  -0.5391  -0.1782  -0.1742   0.1219
     0.1628   0.2455   0.3578   0.4453   0.5567   0.6271   0.6301   0.7459
     0.7474   0.7836   0.9402   0.9517   1.0212   1.1175   1.1684   1.1825
     1.4694   1.4764   5.7044   5.7388   5.9025   6.1025   6.4164   6.4809
     7.1208   7.2754   7.5572   7.7966   8.1645   8.2714   8.4723   8.5098
     8.6495   8.6699   8.7321   8.8343   8.8536   8.8993   9.1142   9.1857
     9.2068   9.2684   9.4048   9.4696   9.4717   9.7053   9.7783   9.8347
     9.8572   9.9090  10.1814  10.1972  10.2120  10.3250  10.4491  10.8477
    10.9089  10.9500  11.0585  11.0796  11.1812  11.1892  11.2796  11.3906
    11.4336  11.4566  11.6993  11.7368  11.8562  11.9678  12.1935  12.2267
    12.3110  12.4245  12.5691  12.6569  12.7553  12.7691  12.8237  12.9850
    13.1730  13.2994  13.4595  13.5303  13.6179  13.7212  13.8708  13.9011
    13.9823  14.2997  14.3710  14.4667  14.5778  14.6593  14.7941  15.0303
    15.1875  15.1909  15.2939  15.3142  15.4930  15.6395  15.6426  15.7134
    15.7618  15.9145  16.1061  16.2549  16.2954  16.3222  16.3777  16.5580
    16.6144  16.6169  16.7610  16.9319  17.0291  17.0423  17.0838  17.2107
    17.4027  17.5305  17.6374  17.6567  17.6645  17.9816  18.0013  18.1723
    18.1913  18.2787  18.3585  18.3806  18.4028  18.4689  18.8740  18.9909
    19.0024  19.0352  19.1399  19.1940  19.2195  19.2623  19.3303  19.3752
    19.4614  19.5043  19.5472  19.7850  20.0175  20.0717  20.1425  20.1612
    20.2264  20.4800  20.4886  20.6191  20.6945  20.7556  20.9081  21.0220
    21.1087  21.2211  21.2719  21.2893  21.4256  21.6162  21.6752  21.6867
    21.7212  21.7787  21.7853  21.9045  22.1894  22.1949  22.3530  22.3883
    22.4275  22.5400  22.5680  22.6098  22.6923  22.7390  22.7656  22.8571
    22.9515  23.0444  23.3030  23.3445  23.4072  23.5136  23.5217  23.6263
    23.7626  23.7866  23.8092  23.8741  23.8901  24.0245  24.1800  24.2220
    24.2868  24.3605  24.3776  24.7597  24.9518  25.0466  25.1204  25.1760
    25.2632  25.2710  25.3416  25.4812  25.6064  25.6138  25.7842  25.8053
    25.8463  26.0071  26.0456  26.2177  26.3832  26.4728  26.5479  26.6650
    26.7039  26.7698  26.7804  26.8328  26.9756  27.0533  27.1055  27.1422
    27.2086  27.3421  27.3810  27.4751  27.5469  27.5806  27.6144  27.6309
    27.9674  27.9808  28.0817  28.1213  28.1499  28.2376  28.2815  28.2878
    28.3318  28.5216  28.5460  28.6216  28.7907  28.8232  28.9352  29.0016
    29.1431  29.2003  29.3201  29.3289  29.5466  29.6275  29.6817  29.6927
    29.7203  29.8290

          k = 0.9256 0.0010 0.8952 ( 34440 PWs)   bands (ev):

   -18.0842 -18.0826 -17.7598 -17.7576 -13.9514 -13.9513 -13.9355 -13.9354
   -13.8993 -13.8993 -13.8992 -13.8992 -13.8707 -13.8707 -12.5880 -12.5717
   -11.6580 -11.6542 -11.4354 -11.4317 -11.4054 -11.3871 -11.0797 -11.0591
   -10.7559 -10.6428 -10.1350 -10.0083  -9.4325  -9.4261  -7.5483  -7.5416
    -7.1420  -7.1348  -6.3028  -6.2606  -5.7408  -5.6182  -5.3679  -5.3521
    -4.9145  -4.7994  -4.5086  -4.2507  -4.1092  -4.0929  -3.2426  -3.1461
    -2.9770  -2.9477  -2.9315  -2.8154  -2.7584  -2.6155  -2.3798  -2.3258
    -2.1358  -2.1059  -0.2869  -0.2706  -0.2553  -0.2091  -0.0721   0.0857
     0.0955   0.2467   0.4965   0.5208   0.6026   0.6497   0.6863   0.7430
     0.7929   0.8117   0.9485   1.0011   1.0141   1.0571   1.1360   1.1581
     1.8000   1.8470   4.5902   4.6174   5.8721   5.9504   5.9566   5.9647
     7.4197   7.6371   7.8088   7.9339   8.2265   8.3034   8.3954   8.4377
     8.6571   8.6692   8.7881   8.7970   8.9999   9.0345   9.1360   9.2224
     9.3349   9.3885   9.4315   9.4577   9.5170   9.6011   9.7731   9.7806
     9.9539  10.1071  10.1208  10.1951  10.2288  10.4122  10.4847  10.5110
    10.6080  10.7143  10.8979  10.9797  11.0484  11.1286  11.2082  11.2183
    11.2609  11.3904  11.4877  11.5553  11.5785  11.7367  11.8309  12.2887
    12.3072  12.5177  12.5260  12.6335  12.9144  12.9830  13.0178  13.0947
    13.1048  13.2220  13.3949  13.4850  13.5922  13.8979  13.9648  14.0267
    14.2657  14.3505  14.3822  14.5112  14.7318  14.7612  14.9971  15.0219
    15.0984  15.1196  15.2152  15.2176  15.3357  15.3996  15.4132  15.9119
    15.9356  16.0036  16.1101  16.2394  16.3579  16.3856  16.6217  16.6554
    16.7323  16.8424  16.8987  17.0128  17.1019  17.1789  17.2606  17.4064
    17.4142  17.5789  17.5976  17.7745  17.8646  17.9665  18.0417  18.1746
    18.1823  18.3235  18.3298  18.3970  18.6149  18.6431  18.6723  18.7524
    18.8458  18.9279  18.9772  19.0696  19.1905  19.2464  19.4502  19.6222
    19.6891  19.7237  19.8135  19.9642  19.9911  20.0707  20.1528  20.2774
    20.3826  20.4173  20.6314  20.6629  20.8396  20.8486  20.8522  21.0047
    21.0738  21.1348  21.2280  21.3187  21.4066  21.4644  21.5402  21.6678
    21.7831  21.8946  22.0122  22.0459  22.1457  22.2138  22.2855  22.3201
    22.5470  22.6840  22.6888  22.7802  22.9542  22.9761  23.0552  23.1715
    23.2119  23.3048  23.4512  23.4709  23.5436  23.6641  23.6916  23.7791
    23.8568  23.9589  24.1021  24.2242  24.2269  24.3128  24.3285  24.5632
    24.6539  24.7723  24.8328  24.8559  24.8574  24.8912  25.0350  25.1668
    25.2454  25.2691  25.3647  25.3930  25.4669  25.5318  25.5786  25.8050
    25.8382  25.9468  25.9633  26.0421  26.1728  26.2348  26.3055  26.4821
    26.5184  26.5981  26.7668  26.7749  26.8371  26.9265  27.0257  27.0279
    27.1763  27.2077  27.2962  27.3370  27.3723  27.4226  27.5477  27.6607
    27.7877  27.7989  27.8185  27.9475  28.0053  28.0888  28.1704  28.1829
    28.2673  28.3486  28.3769  28.5172  28.5846  28.7707  28.7857  28.8616
    28.9229  28.9955  29.2600  29.3327  29.3398  29.4321  29.6018  29.6042
    29.6832  29.7772

          k = 1.1105 0.0010 0.4480 ( 34400 PWs)   bands (ev):

   -18.0862 -18.0845 -17.7615 -17.7594 -13.9918 -13.9674 -13.9319 -13.9307
   -13.9048 -13.8996 -13.8981 -13.8938 -13.8718 -13.8698 -12.5891 -12.5724
   -11.7568 -11.5796 -11.4321 -11.3753 -11.3710 -11.3460 -11.0846 -11.0726
   -10.7225 -10.6370 -10.0931  -9.9890  -9.4052  -9.4012  -7.6438  -7.6363
    -7.2240  -7.2142  -6.2791  -6.2367  -5.7452  -5.6211  -5.1770  -5.0995
    -4.8714  -4.7794  -4.4978  -4.2508  -4.0986  -4.0764  -3.1833  -3.1318
    -3.0036  -2.9950  -2.8555  -2.8505  -2.7725  -2.6222  -2.4116  -2.3587
    -2.1778  -2.1711  -0.6031  -0.5895  -0.5082  -0.2111  -0.1456   0.0853
     0.1295   0.2244   0.3590   0.4581   0.5974   0.6188   0.6773   0.7239
     0.7763   0.8146   0.9458   1.0105   1.0162   1.0932   1.1415   1.1670
     1.3884   1.5171   5.7408   5.7629   5.9343   6.0799   6.3488   6.4723
     6.9671   7.4595   7.5672   7.8383   8.1194   8.1394   8.4236   8.4269
     8.6291   8.6322   8.7521   8.8524   9.0138   9.0240   9.0390   9.1369
     9.2471   9.3315   9.3984   9.4434   9.6378   9.6796   9.6845   9.8187
     9.8344  10.1386  10.1833  10.1851  10.2959  10.3556  10.4646  10.6688
    10.6767  10.8266  10.9301  10.9755  11.0877  11.1710  11.3254  11.4133
    11.4835  11.7445  11.8026  11.8214  11.8875  11.9152  12.0265  12.1908
    12.2868  12.3673  12.4330  12.6602  12.7622  12.8762  12.9117  12.9940
    13.2507  13.3788  13.4259  13.5214  13.7033  13.7981  13.9592  14.0736
    14.0853  14.2880  14.3122  14.5544  14.8227  14.8866  14.8930  14.9935
    15.0261  15.0906  15.2100  15.2645  15.4790  15.5580  15.7556  15.8022
    15.8600  15.9236  15.9489  16.1365  16.1693  16.1986  16.2784  16.5499
    16.5871  16.6719  16.7321  16.8214  16.9616  17.0488  17.1209  17.3305
    17.3465  17.5209  17.5953  17.6331  17.7470  17.7863  17.8341  17.9465
    18.0295  18.0887  18.1485  18.1925  18.4320  18.4565  18.5220  18.6577
    18.8749  18.9222  18.9965  19.1937  19.2080  19.4047  19.4112  19.5246
    19.5704  19.6269  19.8560  19.9675  20.0665  20.2148  20.2670  20.3302
    20.3924  20.4744  20.5929  20.6805  20.7245  20.9582  21.0034  21.0312
    21.1176  21.1460  21.3127  21.3795  21.5643  21.6141  21.6291  21.7152
    21.8261  21.8566  21.9373  22.0066  22.0644  22.2060  22.2446  22.3419
    22.3863  22.4032  22.5265  22.6277  22.7409  22.7611  22.9062  23.1084
    23.1239  23.2342  23.3106  23.3145  23.4589  23.5433  23.5630  23.7496
    23.7623  23.8547  23.8770  23.9953  24.0618  24.0642  24.0905  24.3586
    24.4841  24.5555  24.5695  24.8031  24.8574  24.8784  25.0165  25.0923
    25.1282  25.1975  25.3400  25.3929  25.4687  25.6148  25.6736  25.7713
    25.8510  25.9596  26.0669  26.0836  26.1950  26.2234  26.3672  26.4865
    26.5675  26.5770  26.6878  26.8051  26.8118  26.9063  26.9409  27.1062
    27.1346  27.2434  27.3482  27.4629  27.5288  27.6216  27.6260  27.7060
    27.8641  28.0836  28.1010  28.1433  28.2400  28.3082  28.3155  28.3712
    28.4416  28.5540  28.6377  28.6957  28.8314  28.8704  29.0439  29.0701
    29.1553  29.1629  29.2838  29.3509  29.3732  29.4040  29.4803  29.6080
    29.7243  29.8285

          k = 1.2954 0.0010 0.0007 ( 34360 PWs)   bands (ev):

   -18.0929 -18.0815 -17.7672 -17.7573 -14.0212 -13.9881 -13.9311 -13.9287
   -13.9073 -13.8996 -13.8974 -13.8915 -13.8723 -13.8694 -12.6066 -12.5577
   -11.7864 -11.5743 -11.4256 -11.3458 -11.3214 -11.3001 -11.0935 -11.0658
   -10.6899 -10.6393 -10.0860  -9.9355  -9.3850  -9.3623  -7.7493  -7.7177
    -7.3381  -7.2697  -6.3056  -6.1728  -5.7260  -5.6398  -4.8931  -4.8293
    -4.8254  -4.7337  -4.5038  -4.2406  -4.0883  -4.0657  -3.2567  -3.1063
    -2.9469  -2.9041  -2.8821  -2.8368  -2.8223  -2.6395  -2.4473  -2.3893
    -2.2777  -2.1853  -1.3483  -0.9344  -0.7302  -0.6586  -0.2553   0.2152
     0.3490   0.3750   0.4864   0.5134   0.5920   0.6009   0.6971   0.7247
     0.7352   0.8660   0.9551   1.0692   1.0800   1.0808   1.1182   1.1717
     1.2473   1.3346   5.8901   5.9919   6.2478   6.2841   6.6979   7.1233
     7.3458   7.4770   7.6198   7.6293   8.0891   8.2819   8.3858   8.4551
     8.4645   8.5481   8.6260   8.7356   8.8435   8.9918   9.1153   9.1246
     9.2345   9.3322   9.3541   9.4038   9.4568   9.5824   9.7163   9.7294
     9.7409   9.9589  10.0131  10.3761  10.4506  10.6735  10.6988  10.9003
    11.0795  11.1325  11.2236  11.2373  11.3295  11.4628  11.4958  11.5963
    11.6130  11.6585  11.7725  11.9716  11.9750  12.1331  12.1822  12.2524
    12.3508  12.3777  12.4994  12.5974  12.7779  12.8250  12.8335  12.8353
    12.9576  13.0354  13.3139  13.3640  13.6263  13.7356  13.9361  14.0505
    14.0693  14.2223  14.2302  14.2395  14.4034  14.5869  14.6826  14.7750
    14.9122  14.9364  14.9941  15.0569  15.3507  15.3587  15.6068  15.6618
    15.7166  15.8767  15.9031  16.0177  16.1971  16.2884  16.3690  16.4370
    16.4553  16.6429  16.7867  16.8255  16.8763  17.1175  17.4060  17.4085
    17.4589  17.5165  17.6089  17.7179  17.8215  17.9813  18.0047  18.0876
    18.1598  18.2765  18.3374  18.4100  18.4332  18.5372  18.6484  18.8116
    18.8730  18.9953  19.1844  19.2713  19.3208  19.3671  19.3942  19.4563
    19.5729  19.8084  19.8585  19.9416  19.9473  20.1895  20.2060  20.2781
    20.4065  20.4139  20.4247  20.4788  20.6028  20.6428  20.7222  20.7693
    20.8666  20.9161  20.9854  21.0772  21.1529  21.2889  21.3075  21.4302
    21.4464  21.5784  21.6663  21.6781  21.6964  21.9254  21.9612  22.1695
    22.2665  22.2921  22.5509  22.6490  22.6553  22.7097  22.7389  22.9208
    23.0604  23.1567  23.3505  23.3656  23.4142  23.4506  23.5302  23.8285
    23.8551  23.8997  23.9585  24.0399  24.1255  24.1336  24.2707  24.3334
    24.5495  24.5829  24.6373  24.6518  24.8127  24.8147  24.9375  24.9467
    25.1523  25.2409  25.4136  25.4853  25.5170  25.5212  25.6781  25.7065
    25.8654  26.0474  26.0665  26.1631  26.2280  26.2793  26.4482  26.5122
    26.5609  26.5651  26.8345  26.8792  26.8853  26.9225  27.0545  27.0994
    27.1761  27.1949  27.4746  27.5168  27.5811  27.6698  27.7426  27.8128
    27.8412  27.9936  28.0077  28.2245  28.2606  28.3938  28.4477  28.5329
    28.6569  28.7009  28.7149  28.7616  28.8420  28.8908  28.9897  29.0804
    29.2070  29.3023  29.3558  29.4050  29.4059  29.6139  29.7639  29.8431
    29.8551  29.9769

     Writing all to output data dir ./scf1.save/
 
     init_run     :      0.50s CPU      0.55s WALL (       1 calls)
     electrons    :    937.24s CPU    945.11s WALL (       1 calls)

     Called by init_run:
     wfcinit      :      0.00s CPU      0.02s WALL (       1 calls)
     wfcinit:atom :      0.06s CPU      0.06s WALL (      32 calls)
     wfcinit:wfcr :     12.40s CPU     12.58s WALL (      32 calls)
     potinit      :      0.05s CPU      0.08s WALL (       1 calls)
     hinit0       :      0.31s CPU      0.32s WALL (       1 calls)

     Called by electrons:
     c_bands      :    937.23s CPU    945.11s WALL (       1 calls)
     v_of_rho     :      0.03s CPU      0.03s WALL (       1 calls)
     v_h          :      0.01s CPU      0.01s WALL (       1 calls)
     v_xc         :      0.02s CPU      0.02s WALL (       1 calls)

     Called by c_bands:
     init_us_2    :      0.11s CPU      0.11s WALL (      32 calls)
     init_us_2:cp :      0.11s CPU      0.11s WALL (      32 calls)
     cegterg      :    915.80s CPU    922.93s WALL (     128 calls)

     Called by sum_band:

     Called by *egterg:
     cdiaghg      :    426.97s CPU    428.45s WALL (    2216 calls)
     cegterg:over :     88.42s CPU     89.97s WALL (    2184 calls)
     cegterg:upda :     39.66s CPU     39.89s WALL (    2184 calls)
     cegterg:last :     78.73s CPU     79.21s WALL (     987 calls)
     h_psi        :    276.76s CPU    280.07s WALL (    2344 calls)
     g_psi        :      1.71s CPU      1.72s WALL (    2184 calls)

     Called by h_psi:
     h_psi:calbec :     32.31s CPU     33.03s WALL (    2344 calls)
     vloc_psi     :    211.92s CPU    214.29s WALL (    2344 calls)
     add_vuspsi   :     29.79s CPU     29.98s WALL (    2344 calls)

     General routines
     calbec       :     32.30s CPU     33.02s WALL (    2344 calls)
     fft          :      0.02s CPU      0.03s WALL (      11 calls)
     fftw         :    186.14s CPU    188.22s WALL (  660056 calls)
     davcio       :      0.01s CPU      0.36s WALL (      64 calls)
 
     Parallel routines
 
     PWSCF        :  15m40.65s CPU  15m58.48s WALL

 
   This run was terminated on:  16:12:21  30Aug2023            

=------------------------------------------------------------------------------=
   JOB DONE.
=------------------------------------------------------------------------------=
