
     Program PWSCF v.7.1 starts on 30Aug2023 at 15:56:52 

     This program is part of the open-source Quantum ESPRESSO suite
     for quantum simulation of materials; please cite
         "P. Giannozzi et al., J. Phys.:Condens. Matter 21 395502 (2009);
         "P. Giannozzi et al., J. Phys.:Condens. Matter 29 465901 (2017);
         "P. Giannozzi et al., J. Chem. Phys. 152 154105 (2020);
          URL http://www.quantum-espresso.org", 
     in publications or presentations arising from this work. More details at
     http://www.quantum-espresso.org/quote

     Parallel version (MPI), running on    56 processors

     MPI processes distributed on     1 nodes
     87759 MiB available memory on the printing compute node when the environment starts
 
     Waiting for input...
     Reading input from standard input
Warning: card &IONS ignored
Warning: card / ignored
Warning: card &CELL ignored
Warning: card PRESS_CONV_THR = 0.001 ignored
Warning: card / ignored

     Current dimensions of program PWSCF are:
     Max number of different atomic species (ntypx) = 10
     Max number of k-points (npk) =  40000
     Max angular momentum in pseudopotentials (lmaxx) =  4

     Atomic positions and unit cell read from directory:
     ./scf1.save/
     Atomic positions from file used, from input discarded
 
     Message from routine setup:
     using ibrav=0 with symmetry is DISCOURAGED, use correct ibrav instead
 
     K-points division:     npool     =       2
     R & G space division:  proc/nbgrp/npool/nimage =      28
     Subspace diagonalization in iterative solution of the eigenvalue problem:
     a serial algorithm will be used

 
     Parallelization info
     --------------------
     sticks:   dense  smooth     PW     G-vecs:    dense   smooth      PW
     Min         283     283     79                 9831     9831    1465
     Max         284     284     80                 9834     9834    1467
     Sum        7949    7949   2231               275321   275321   41047
 
     Using Slab Decomposition
 


     bravais-lattice index     =            0
     lattice parameter (alat)  =      20.4147  a.u.
     unit-cell volume          =    4384.1849 (a.u.)^3
     number of atoms/cell      =           50
     number of atomic types    =            5
     number of electrons       =       164.00
     number of Kohn-Sham states=          330
     kinetic-energy cutoff     =      60.0000  Ry
     charge density cutoff     =     240.0000  Ry
     Exchange-correlation= PBE
                           (   1   4   3   4   0   0   0)

     celldm(1)=  20.414728  celldm(2)=   0.000000  celldm(3)=   0.000000
     celldm(4)=   0.000000  celldm(5)=   0.000000  celldm(6)=   0.000000

     crystal axes: (cart. coord. in units of alat)
               a(1) = (   0.675983   0.681859   0.279491 )  
               a(2) = (   0.675983  -0.681859   0.279491 )  
               a(3) = (   0.675983  -0.681859  -0.279491 )  

     reciprocal axes: (cart. coord. in units 2 pi/alat)
               b(1) = (  0.739663  0.733289  0.000000 )  
               b(2) = (  0.000000 -0.733289  1.788967 )  
               b(3) = (  0.739663 -0.000000 -1.788967 )  


     PseudoPot. # 1 for Pb read from file:
     /home/rkarkee/merced_home_backup/rkarkee/pseudo/Pb.upf
     MD5 check sum: 465799cf2c9ea2062203eb79f5a7a375
     Pseudo is Norm-conserving + core correction, Zval = 14.0
     Generated using ONCVPSP code by D. R. Hamann
     Using radial grid of 1678 points,  6 beta functions with: 
                l(1) =   0
                l(2) =   0
                l(3) =   1
                l(4) =   1
                l(5) =   2
                l(6) =   2

     PseudoPot. # 2 for Br read from file:
     /home/rkarkee/merced_home_backup/rkarkee/pseudo/Br.upf
     MD5 check sum: 68275ccec8d7d9019ef58dac33cdd12b
     Pseudo is Norm-conserving + core correction, Zval =  7.0
     Generated using ONCVPSP code by D. R. Hamann
     Using radial grid of 1098 points,  6 beta functions with: 
                l(1) =   0
                l(2) =   0
                l(3) =   1
                l(4) =   1
                l(5) =   2
                l(6) =   2

     PseudoPot. # 3 for C  read from file:
     /home/rkarkee/merced_home_backup/rkarkee/pseudo/C.upf
     MD5 check sum: 34a24e64c0a39f27c6c36b90a16ac686
     Pseudo is Norm-conserving + core correction, Zval =  4.0
     Generated using ONCVPSP code by D. R. Hamann
     Using radial grid of 1248 points,  4 beta functions with: 
                l(1) =   0
                l(2) =   0
                l(3) =   1
                l(4) =   1

     PseudoPot. # 4 for H  read from file:
     /home/rkarkee/merced_home_backup/rkarkee/pseudo/H.upf
     MD5 check sum: e96aa7e3e4a958db16958554ea960e2a
     Pseudo is Norm-conserving, Zval =  1.0
     Generated using ONCVPSP code by D. R. Hamann
     Using radial grid of 1166 points,  3 beta functions with: 
                l(1) =   0
                l(2) =   0
                l(3) =   1

     PseudoPot. # 5 for N  read from file:
     /home/rkarkee/merced_home_backup/rkarkee/pseudo/N.upf
     MD5 check sum: d34365f73bb0e2ee98afc20ec3e87676
     Pseudo is Norm-conserving + core correction, Zval =  5.0
     Generated using ONCVPSP code by D. R. Hamann
     Using radial grid of 1058 points,  4 beta functions with: 
                l(1) =   0
                l(2) =   0
                l(3) =   1
                l(4) =   1

     atomic species   valence    mass     pseudopotential
        Pb            14.00   207.20000     Pb( 1.00)
        Br             7.00    79.90000     Br( 1.00)
        C              4.00    12.01000     C ( 1.00)
        H              1.00     1.00800     H ( 1.00)
        N              5.00    14.01000     N ( 1.00)

      8 Sym. Ops., with inversion, found ( 4 have fractional translation)


                                    s                        frac. trans.

      isym =  1     identity                                     

 cryst.   s( 1) = (     1          0          0      )
                  (     0          1          0      )
                  (     0          0          1      )

 cart.    s( 1) = (  1.0000000  0.0000000  0.0000000 )
                  (  0.0000000  1.0000000 -0.0000000 )
                  (  0.0000000 -0.0000000  1.0000000 )


      isym =  2     180 deg rotation - cart. axis [0,0,1]        

 cryst.   s( 2) = (    -1          1         -1      )    f =(  0.0000000 )
                  (     0          0         -1      )       ( -0.5000000 )
                  (     0         -1          0      )       ( -0.5000000 )

 cart.    s( 2) = ( -1.0000000  0.0000000 -0.0000001 )    f =( -0.6759831 )
                  ( -0.0000000 -1.0000000 -0.0000002 )       (  0.6818590 )
                  (  0.0000001 -0.0000000  1.0000000 )       (  0.0000000 )


      isym =  3     180 deg rotation - cart. axis [0,1,0]        

 cryst.   s( 3) = (     0         -1          0      )
                  (    -1          0          0      )
                  (    -1          1         -1      )

 cart.    s( 3) = ( -1.0000000  0.0000000  0.0000000 )
                  ( -0.0000001  1.0000000  0.0000002 )
                  ( -0.0000000  0.0000000 -1.0000000 )


      isym =  4     180 deg rotation - cart. axis [1,0,0]        

 cryst.   s( 4) = (     0          0          1      )    f =( -0.0000000 )
                  (     1         -1          1      )       ( -0.5000000 )
                  (     1          0          0      )       (  0.5000000 )

 cart.    s( 4) = (  1.0000000 -0.0000000  0.0000001 )    f =(  0.0000000 )
                  (  0.0000001 -1.0000000  0.0000000 )       (  0.0000000 )
                  ( -0.0000001  0.0000000 -1.0000000 )       ( -0.2794909 )


      isym =  5     inversion                                    

 cryst.   s( 5) = (    -1          0          0      )
                  (     0         -1          0      )
                  (     0          0         -1      )

 cart.    s( 5) = ( -1.0000000 -0.0000000 -0.0000000 )
                  ( -0.0000000 -1.0000000  0.0000000 )
                  ( -0.0000000  0.0000000 -1.0000000 )


      isym =  6     inv. 180 deg rotation - cart. axis [0,0,1]   

 cryst.   s( 6) = (     1         -1          1      )    f =(  0.0000000 )
                  (     0          0          1      )       ( -0.5000000 )
                  (     0          1          0      )       (  0.5000000 )

 cart.    s( 6) = (  1.0000000 -0.0000000  0.0000001 )    f =(  0.0000000 )
                  (  0.0000000  1.0000000  0.0000002 )       (  0.0000000 )
                  ( -0.0000001  0.0000000 -1.0000000 )       ( -0.2794909 )


      isym =  7     inv. 180 deg rotation - cart. axis [0,1,0]   

 cryst.   s( 7) = (     0          1          0      )
                  (     1          0          0      )
                  (     1         -1          1      )

 cart.    s( 7) = (  1.0000000 -0.0000000 -0.0000000 )
                  (  0.0000001 -1.0000000 -0.0000002 )
                  (  0.0000000 -0.0000000  1.0000000 )


      isym =  8     inv. 180 deg rotation - cart. axis [1,0,0]   

 cryst.   s( 8) = (     0          0         -1      )    f =(  0.0000000 )
                  (    -1          1         -1      )       ( -0.5000000 )
                  (    -1          0          0      )       ( -0.5000000 )

 cart.    s( 8) = ( -1.0000000  0.0000000 -0.0000001 )    f =( -0.6759831 )
                  ( -0.0000001  1.0000000 -0.0000000 )       (  0.6818590 )
                  (  0.0000001 -0.0000000  1.0000000 )       (  0.0000000 )


   Cartesian axes

     site n.     atom                  positions (alat units)
         1           Pb  tau(   1) = (   1.5075418  -0.6818590   0.1397454  )
         2           Pb  tau(   2) = (   0.5204074   0.0000000   0.1397454  )
         3           Br  tau(   3) = (   0.5385907   0.2793391   0.1397454  )
         4           Br  tau(   4) = (   0.5385907  -0.2793391   0.1397454  )
         5           Br  tau(   5) = (   1.4893586  -0.9611980   0.1397454  )
         6           Br  tau(   6) = (   1.4893586  -0.4025199   0.1397454  )
         7           Br  tau(   7) = (   1.2072256  -0.6818590   0.1397454  )
         8           Br  tau(   8) = (   0.8207237   0.0000000   0.1397454  )
         9           Br  tau(   9) = (   1.1001315   0.0000000   0.4192362  )
        10           Br  tau(  10) = (   0.9278178  -0.6818590  -0.1397455  )
        11           C   tau(  11) = (   1.0435272  -0.2770472   0.1397454  )
        12           C   tau(  12) = (   1.0435272   0.2770473   0.1397454  )
        13           C   tau(  13) = (   0.9844221  -0.4048118   0.1397454  )
        14           C   tau(  14) = (   0.9844220  -0.9589062   0.1397454  )
        15           C   tau(  15) = (   1.2437548  -0.1666552   0.1397454  )
        16           C   tau(  16) = (   0.5677717  -0.5152038  -0.1397455  )
        17           C   tau(  17) = (   0.7841945  -0.5152038   0.1397454  )
        18           C   tau(  18) = (   1.4601776  -0.1666552   0.4192362  )
        19           H   tau(  19) = (   1.0102673  -0.4576497   0.0569380  )
        20           H   tau(  20) = (   0.3342842  -0.2242093  -0.0569381  )
        21           H   tau(  21) = (   1.0176820  -0.2242093   0.0569380  )
        22           H   tau(  22) = (   1.0176820   0.2242093   0.2225527  )
        23           H   tau(  23) = (   1.0176819  -0.2242093   0.2225527  )
        24           H   tau(  24) = (   1.6936651  -0.4576497   0.3364289  )
        25           H   tau(  25) = (   1.0102673  -0.4576497   0.2225527  )
        26           H   tau(  26) = (   1.0102673  -0.9060683   0.0569380  )
        27           H   tau(  27) = (   1.3437843  -0.1821188   0.1397454  )
        28           H   tau(  28) = (   0.6678012  -0.4997402  -0.1397455  )
        29           H   tau(  29) = (   0.6841650  -0.4997402   0.1397454  )
        30           H   tau(  30) = (   1.3601482  -0.1821188   0.4192362  )
        31           H   tau(  31) = (   0.8130520  -0.5655596   0.2229066  )
        32           H   tau(  32) = (   0.8130520  -0.7981584   0.0565842  )
        33           H   tau(  33) = (   1.2148973  -0.1162994   0.2229066  )
        34           H   tau(  34) = (   1.2148973   0.1162994   0.0565842  )
        35           H   tau(  35) = (   1.2148973  -0.1162993   0.0565842  )
        36           H   tau(  36) = (   1.2148973   0.1162994   0.2229066  )
        37           H   tau(  37) = (   0.8130520  -0.5655596   0.0565842  )
        38           H   tau(  38) = (   0.8130520  -0.7981584   0.2229066  )
        39           H   tau(  39) = (   0.8200186  -0.3429687   0.0611483  )
        40           H   tau(  40) = (   0.8200186   0.3429687   0.2183425  )
        41           H   tau(  41) = (   1.2079308  -0.3388903   0.0611483  )
        42           H   tau(  42) = (   0.5319476  -0.3429687  -0.0611483  )
        43           H   tau(  43) = (   1.2079307  -0.3388903   0.2183425  )
        44           H   tau(  44) = (   1.2079307  -1.0248277   0.0611483  )
        45           H   tau(  45) = (   0.8200186  -0.3429687   0.2183425  )
        46           H   tau(  46) = (   1.4960016  -0.3388903   0.3406391  )
        47           N   tau(  47) = (   1.1808313  -0.2891989   0.1397454  )
        48           N   tau(  48) = (   0.5048482  -0.3926600  -0.1397454  )
        49           N   tau(  49) = (   0.8471180  -0.3926601   0.1397454  )
        50           N   tau(  50) = (   1.5231010  -0.2891989   0.4192362  )

   Crystallographic axes

     site n.     atom                  positions (cryst. coord.)
         1           Pb  tau(   1) = (  0.6150736  0.7500000  0.8650736  )
         2           Pb  tau(   2) = (  0.3849264  0.2500000  0.1349264  )
         3           Br  tau(   3) = (  0.6032122  0.0451636  0.1483758  )
         4           Br  tau(   4) = (  0.1935395  0.4548364  0.1483758  )
         5           Br  tau(   5) = (  0.3967878  0.9548364  0.8516241  )
         6           Br  tau(   6) = (  0.8064606  0.5451636  0.8516241  )
         7           Br  tau(   7) = (  0.3929407  0.7500000  0.6429407  )
         8           Br  tau(   8) = (  0.6070593  0.2500000  0.3570593  )
         9           Br  tau(   9) = (  0.8137271  0.7500000  0.0637271  )
        10           Br  tau(  10) = (  0.1862729  0.2500000  0.9362729  )
        11           C   tau(  11) = (  0.5687032  0.4531558  0.5218590  )
        12           C   tau(  12) = (  0.9750148  0.0468442  0.5218590  )
        13           C   tau(  13) = (  0.4312968  0.5468442  0.4781410  )
        14           C   tau(  14) = (  0.0249852  0.9531558  0.4781410  )
        15           C   tau(  15) = (  0.7977535  0.3722065  0.6699600  )
        16           C   tau(  16) = (  0.0421664  0.1277935  0.6699600  )
        17           C   tau(  17) = (  0.2022466  0.6277935  0.3300400  )
        18           C   tau(  18) = (  0.9578336  0.8722065  0.3300400  )
        19           H   tau(  19) = (  0.4116681  0.4374501  0.6453975  )
        20           H   tau(  20) = (  0.0828475  0.0625499  0.3491182  )
        21           H   tau(  21) = (  0.5883318  0.2662707  0.6508818  )
        22           H   tau(  22) = (  0.9171525  0.2337293  0.3546025  )
        23           H   tau(  23) = (  0.5883318  0.5625499  0.3546025  )
        24           H   tau(  24) = (  0.9171525  0.9374501  0.6508818  )
        25           H   tau(  25) = (  0.4116681  0.7337293  0.3491182  )
        26           H   tau(  26) = (  0.0828475  0.7662707  0.6453975  )
        27           H   tau(  27) = (  0.8604024  0.3835458  0.7439481  )
        28           H   tau(  28) = (  0.1274939  0.1164542  0.7439481  )
        29           H   tau(  29) = (  0.1395977  0.6164542  0.2560519  )
        30           H   tau(  30) = (  0.8725061  0.8835458  0.2560519  )
        31           H   tau(  31) = (  0.1866660  0.8134915  0.2026122  )
        32           H   tau(  32) = (  0.0161037  0.6865084  0.5001575  )
        33           H   tau(  33) = (  0.8133340  0.4840538  0.4998425  )
        34           H   tau(  34) = (  0.9838962  0.0159462  0.7973878  )
        35           H   tau(  35) = (  0.8133340  0.1865085  0.7973878  )
        36           H   tau(  36) = (  0.9838962  0.3134915  0.4998425  )
        37           H   tau(  37) = (  0.1866660  0.5159462  0.5001575  )
        38           H   tau(  38) = (  0.0161037  0.9840538  0.2026122  )
        39           H   tau(  39) = (  0.3550424  0.3608877  0.4971454  )
        40           H   tau(  40) = (  0.8580331  0.1391123  0.2159301  )
        41           H   tau(  41) = (  0.6449576  0.3578970  0.7840699  )
        42           H   tau(  42) = (  0.1419669  0.1421030  0.5028546  )
        43           H   tau(  43) = (  0.6449576  0.6391124  0.5028546  )
        44           H   tau(  44) = (  0.1419669  0.8608876  0.7840699  )
        45           H   tau(  45) = (  0.3550424  0.6421030  0.2159301  )
        46           H   tau(  46) = (  0.8580331  0.8578970  0.4971454  )
        47           N   tau(  47) = (  0.6613513  0.4620665  0.6234178  )
        48           N   tau(  48) = (  0.0854843  0.0379335  0.6234178  )
        49           N   tau(  49) = (  0.3386487  0.5379335  0.3765822  )
        50           N   tau(  50) = (  0.9145157  0.9620665  0.3765822  )

     number of k points=    17  Gaussian smearing, width (Ry)=  0.0001
                       cart. coord. in units 2pi/alat
        k(    1) = (   0.1849159  -0.0000000   0.0000000), wk =   0.0625000
        k(    2) = (   0.3698317  -0.0000000  -0.4472418), wk =   0.1250000
        k(    3) = (   0.5547476  -0.0000000  -0.8944836), wk =   0.1250000
        k(    4) = (   0.7396634  -0.0000000  -1.3417254), wk =   0.0625000
        k(    5) = (   0.1849159  -0.1833224   0.4472418), wk =   0.2500000
        k(    6) = (   0.3698317  -0.1833224   0.0000000), wk =   0.1250000
        k(    7) = (   0.5547476  -0.1833224  -0.4472418), wk =   0.2500000
        k(    8) = (   0.7396634  -0.1833224  -0.8944836), wk =   0.1250000
        k(    9) = (   0.1849159  -0.3666447   0.8944836), wk =   0.1250000
        k(   10) = (   0.3698318  -0.3666447   0.4472418), wk =   0.1250000
        k(   11) = (   0.5547476  -0.3666447  -0.0000000), wk =   0.1250000
        k(   12) = (   0.7396635  -0.3666447  -0.4472418), wk =   0.1250000
        k(   13) = (   0.3698318  -0.5499671   0.8944836), wk =   0.1250000
        k(   14) = (   0.7396635  -0.5499671  -0.0000000), wk =   0.0625000
        k(   15) = (   0.5547476  -0.0000000   0.0000000), wk =   0.0625000
        k(   16) = (   0.7396634  -0.0000000  -0.4472418), wk =   0.0625000
        k(   17) = (   0.7396635  -0.1833224   0.0000000), wk =   0.0625000

                       cryst. coord.
        k(    1) = (   0.1250000   0.1250000   0.1250000), wk =   0.0625000
        k(    2) = (   0.1250000   0.1250000   0.3750000), wk =   0.1250000
        k(    3) = (   0.1250000   0.1250000   0.6250000), wk =   0.1250000
        k(    4) = (   0.1250000   0.1250000   0.8750000), wk =   0.0625000
        k(    5) = (   0.1250000   0.3750000   0.1250000), wk =   0.2500000
        k(    6) = (   0.1250000   0.3750000   0.3750000), wk =   0.1250000
        k(    7) = (   0.1250000   0.3750000   0.6250000), wk =   0.2500000
        k(    8) = (   0.1250000   0.3750000   0.8750000), wk =   0.1250000
        k(    9) = (   0.1250000   0.6250000   0.1250000), wk =   0.1250000
        k(   10) = (   0.1250000   0.6250000   0.3750000), wk =   0.1250000
        k(   11) = (   0.1250000   0.6250000   0.6250000), wk =   0.1250000
        k(   12) = (   0.1250000   0.6250000   0.8750000), wk =   0.1250000
        k(   13) = (   0.1250000   0.8750000   0.3750000), wk =   0.1250000
        k(   14) = (   0.1250000   0.8750000   0.8750000), wk =   0.0625000
        k(   15) = (   0.3750000   0.3750000   0.3750000), wk =   0.0625000
        k(   16) = (   0.3750000   0.3750000   0.6250000), wk =   0.0625000
        k(   17) = (   0.3750000   0.6250000   0.6250000), wk =   0.0625000

     Dense  grid:   275321 G-vectors     FFT dimensions: ( 108, 108, 108)

     Dynamical RAM for                 wfc:       6.18 MB

     Dynamical RAM for     wfc (w. buffer):       6.18 MB

     Dynamical RAM for           str. fact:       0.75 MB

     Dynamical RAM for           local pot:       0.00 MB

     Dynamical RAM for          nlocal pot:       7.79 MB

     Dynamical RAM for                qrad:       6.22 MB

     Dynamical RAM for          rho,v,vnew:       1.52 MB

     Dynamical RAM for           G-vectors:       0.64 MB

     Dynamical RAM for          h,s,v(r/c):      19.94 MB

     Dynamical RAM for          <psi|beta>:       2.09 MB

     Dynamical RAM for                 psi:      12.37 MB

     Dynamical RAM for                hpsi:      12.37 MB

     Dynamical RAM for      wfcinit/wfcrot:      14.86 MB

     Estimated static dynamical RAM per process >      25.78 MB

     Estimated max dynamical RAM per process >      72.55 MB

     Estimated total dynamical RAM >       3.97 GB

     The potential is recalculated from file :
     ./scf1.save/charge-density

     Starting wfcs are  126 randomized atomic wfcs +  204 random wfcs

     Band Structure Calculation
     Davidson diagonalization with overlap

     Computing kpt #:     1  of     9 on this pool
     total cpu time spent up to now is       30.2 secs

     Computing kpt #:     2  of     9 on this pool
     total cpu time spent up to now is       59.9 secs

     Computing kpt #:     3  of     9 on this pool
     total cpu time spent up to now is       90.8 secs

     Computing kpt #:     4  of     9 on this pool
     total cpu time spent up to now is      120.3 secs

     Computing kpt #:     5  of     9 on this pool
     total cpu time spent up to now is      150.4 secs

     Computing kpt #:     6  of     9 on this pool
     total cpu time spent up to now is      180.8 secs

     Computing kpt #:     7  of     9 on this pool
     total cpu time spent up to now is      211.0 secs

     Computing kpt #:     8  of     9 on this pool
     total cpu time spent up to now is      239.3 secs

     Computing kpt #:     9  of     9 on this pool
     total cpu time spent up to now is      265.7 secs

     ethr =  1.00E-13,  avg # of iterations = 67.5

     total cpu time spent up to now is      265.7 secs

     End of band structure calculation

          k = 0.1849-0.0000 0.0000 ( 34364 PWs)   bands (ev):

   -18.0929 -18.0815 -17.7672 -17.7574 -14.0212 -13.9881 -13.9311 -13.9287
   -13.9073 -13.8996 -13.8974 -13.8915 -13.8723 -13.8694 -12.6065 -12.5577
   -11.7864 -11.5743 -11.4256 -11.3458 -11.3214 -11.3001 -11.0935 -11.0659
   -10.6896 -10.6395 -10.0859  -9.9356  -9.3849  -9.3624  -7.7492  -7.7178
    -7.3380  -7.2698  -6.3054  -6.1730  -5.7261  -5.6397  -4.8931  -4.8297
    -4.8251  -4.7336  -4.5036  -4.2406  -4.0882  -4.0659  -3.2565  -3.1062
    -2.9469  -2.9042  -2.8821  -2.8369  -2.8223  -2.6394  -2.4472  -2.3894
    -2.2776  -2.1854  -1.3484  -0.9342  -0.7301  -0.6585  -0.2554   0.2150
     0.3493   0.3746   0.4867   0.5132   0.5921   0.6012   0.6970   0.7245
     0.7353   0.8658   0.9554   1.0691   1.0799   1.0807   1.1183   1.1717
     1.2474   1.3346   5.8898   5.9921   6.2481   6.2839   6.6974   7.1238
     7.3459   7.4770   7.6200   7.6295   8.0884   8.2807   8.3864   8.4551
     8.4649   8.5479   8.6267   8.7353   8.8442   8.9914   9.1146   9.1249
     9.2341   9.3323   9.3552   9.4029   9.4567   9.5813   9.7167   9.7283
     9.7415   9.9602  10.0136  10.3754  10.4513  10.6742  10.6987  10.9011
    11.0798  11.1309  11.2223  11.2376  11.3295  11.4631  11.4937  11.5966
    11.6122  11.6577  11.7735  11.9735  11.9747  12.1343  12.1825  12.2515
    12.3510  12.3778  12.4991  12.5975  12.7779  12.8233  12.8333  12.8364
    12.9595  13.0344  13.3128  13.3637  13.6270  13.7353  13.9361  14.0505
    14.0708  14.2224  14.2314  14.2397  14.4049  14.5861  14.6827  14.7768
    14.9122  14.9373  14.9939  15.0586  15.3493  15.3587  15.6066  15.6612
    15.7165  15.8770  15.9018  16.0179  16.1953  16.2876  16.3707  16.4363
    16.4559  16.6421  16.7871  16.8248  16.8741  17.1175  17.4047  17.4069
    17.4605  17.5171  17.6081  17.7193  17.8227  17.9800  18.0033  18.0859
    18.1618  18.2752  18.3377  18.4088  18.4329  18.5356  18.6470  18.8086
    18.8736  18.9942  19.1853  19.2696  19.3212  19.3675  19.3960  19.4566
    19.5739  19.8069  19.8591  19.9439  19.9477  20.1910  20.2067  20.2792
    20.4048  20.4133  20.4246  20.4787  20.6039  20.6468  20.7203  20.7728
    20.8670  20.9171  20.9864  21.0765  21.1514  21.2881  21.3060  21.4302
    21.4434  21.5784  21.6673  21.6787  21.6981  21.9245  21.9632  22.1695
    22.2673  22.2919  22.5521  22.6520  22.6549  22.7081  22.7398  22.9189
    23.0607  23.1568  23.3548  23.3656  23.4171  23.4553  23.5288  23.8259
    23.8559  23.8974  23.9597  24.0421  24.1254  24.1324  24.2694  24.3307
    24.5514  24.5828  24.6376  24.6517  24.8112  24.8140  24.9373  24.9455
    25.1533  25.2437  25.4115  25.4860  25.5173  25.5222  25.6786  25.7031
    25.8649  26.0468  26.0668  26.1625  26.2269  26.2770  26.4479  26.5114
    26.5594  26.5658  26.8370  26.8786  26.8839  26.9236  27.0551  27.0979
    27.1733  27.1981  27.4739  27.5135  27.5813  27.6664  27.7393  27.8114
    27.8397  27.9954  28.0073  28.2269  28.2625  28.3940  28.4471  28.5324
    28.6575  28.6976  28.7165  28.7615  28.8426  28.8882  28.9902  29.0804
    29.2060  29.3017  29.3573  29.4063  29.4080  29.6168  29.7645  29.8402
    29.8562  29.9773

          k = 0.3698-0.0000-0.4472 ( 34400 PWs)   bands (ev):

   -18.0862 -18.0845 -17.7616 -17.7594 -13.9919 -13.9675 -13.9319 -13.9307
   -13.9048 -13.8996 -13.8981 -13.8938 -13.8718 -13.8698 -12.5890 -12.5725
   -11.7569 -11.5795 -11.4321 -11.3753 -11.3708 -11.3459 -11.0847 -11.0725
   -10.7226 -10.6367 -10.0928  -9.9891  -9.4051  -9.4012  -7.6441  -7.6365
    -7.2240  -7.2145  -6.2788  -6.2368  -5.7453  -5.6211  -5.1764  -5.0989
    -4.8715  -4.7790  -4.4977  -4.2509  -4.0987  -4.0763  -3.1830  -3.1319
    -3.0037  -2.9950  -2.8554  -2.8506  -2.7725  -2.6223  -2.4117  -2.3588
    -2.1779  -2.1712  -0.6044  -0.5908  -0.5084  -0.2115  -0.1473   0.0855
     0.1300   0.2246   0.3593   0.4585   0.5975   0.6187   0.6773   0.7239
     0.7764   0.8147   0.9461   1.0108   1.0162   1.0931   1.1413   1.1670
     1.3877   1.5167   5.7414   5.7653   5.9347   6.0802   6.3515   6.4739
     6.9658   7.4597   7.5670   7.8381   8.1185   8.1381   8.4240   8.4255
     8.6290   8.6314   8.7524   8.8528   9.0142   9.0241   9.0386   9.1376
     9.2468   9.3322   9.3990   9.4432   9.6376   9.6791   9.6841   9.8181
     9.8352  10.1380  10.1842  10.1854  10.2960  10.3555  10.4661  10.6685
    10.6754  10.8256  10.9304  10.9759  11.0886  11.1716  11.3259  11.4130
    11.4846  11.7461  11.8018  11.8209  11.8883  11.9147  12.0267  12.1914
    12.2868  12.3679  12.4327  12.6611  12.7615  12.8774  12.9107  12.9957
    13.2509  13.3770  13.4258  13.5209  13.7050  13.7999  13.9607  14.0738
    14.0839  14.2857  14.3110  14.5549  14.8238  14.8871  14.8931  14.9937
    15.0259  15.0902  15.2102  15.2634  15.4793  15.5600  15.7544  15.8016
    15.8600  15.9224  15.9496  16.1359  16.1687  16.1988  16.2773  16.5484
    16.5881  16.6721  16.7322  16.8198  16.9605  17.0469  17.1186  17.3310
    17.3456  17.5203  17.5951  17.6337  17.7458  17.7881  17.8325  17.9458
    18.0288  18.0872  18.1472  18.1921  18.4336  18.4578  18.5214  18.6573
    18.8744  18.9228  18.9969  19.1914  19.2069  19.4065  19.4105  19.5242
    19.5686  19.6261  19.8567  19.9710  20.0667  20.2150  20.2687  20.3324
    20.3925  20.4749  20.5935  20.6790  20.7250  20.9571  21.0033  21.0312
    21.1178  21.1475  21.3124  21.3805  21.5654  21.6120  21.6285  21.7128
    21.8258  21.8575  21.9365  22.0080  22.0656  22.2063  22.2452  22.3402
    22.3860  22.4030  22.5260  22.6258  22.7415  22.7606  22.9061  23.1096
    23.1238  23.2349  23.3119  23.3141  23.4588  23.5422  23.5615  23.7513
    23.7629  23.8562  23.8761  23.9963  24.0631  24.0656  24.0890  24.3576
    24.4837  24.5580  24.5694  24.8029  24.8575  24.8771  25.0165  25.0912
    25.1284  25.1978  25.3422  25.3892  25.4685  25.6133  25.6759  25.7702
    25.8526  25.9597  26.0677  26.0826  26.1950  26.2203  26.3661  26.4848
    26.5684  26.5779  26.6855  26.8065  26.8110  26.9057  26.9400  27.1059
    27.1369  27.2420  27.3516  27.4615  27.5287  27.6233  27.6280  27.7068
    27.8620  28.0835  28.1011  28.1403  28.2428  28.3053  28.3145  28.3721
    28.4405  28.5507  28.6385  28.6963  28.8291  28.8679  29.0433  29.0683
    29.1539  29.1643  29.2830  29.3515  29.3744  29.4028  29.4793  29.6069
    29.7254  29.8286

          k = 0.5547-0.0000-0.8945 ( 34440 PWs)   bands (ev):

   -18.0842 -18.0826 -17.7598 -17.7576 -13.9514 -13.9513 -13.9355 -13.9354
   -13.8993 -13.8993 -13.8992 -13.8992 -13.8707 -13.8707 -12.5880 -12.5717
   -11.6581 -11.6541 -11.4354 -11.4317 -11.4054 -11.3871 -11.0797 -11.0591
   -10.7560 -10.6427 -10.1350 -10.0083  -9.4325  -9.4261  -7.5484  -7.5415
    -7.1420  -7.1348  -6.3027  -6.2606  -5.7409  -5.6182  -5.3680  -5.3521
    -4.9146  -4.7993  -4.5086  -4.2507  -4.1093  -4.0929  -3.2428  -3.1460
    -2.9772  -2.9476  -2.9312  -2.8156  -2.7582  -2.6157  -2.3798  -2.3257
    -2.1358  -2.1059  -0.2866  -0.2701  -0.2558  -0.2092  -0.0723   0.0859
     0.0955   0.2466   0.4959   0.5212   0.6023   0.6496   0.6866   0.7432
     0.7928   0.8117   0.9488   1.0014   1.0140   1.0569   1.1359   1.1581
     1.7999   1.8471   4.5905   4.6170   5.8722   5.9506   5.9566   5.9646
     7.4199   7.6371   7.8085   7.9345   8.2266   8.3026   8.3945   8.4372
     8.6579   8.6700   8.7875   8.7977   9.0001   9.0345   9.1358   9.2220
     9.3354   9.3888   9.4309   9.4580   9.5177   9.6011   9.7727   9.7802
     9.9538  10.1070  10.1220  10.1931  10.2287  10.4121  10.4852  10.5120
    10.6080  10.7149  10.8982  10.9794  11.0499  11.1282  11.2084  11.2183
    11.2593  11.3907  11.4866  11.5553  11.5780  11.7353  11.8317  12.2893
    12.3090  12.5190  12.5252  12.6309  12.9161  12.9844  13.0176  13.0936
    13.1041  13.2214  13.3966  13.4861  13.5902  13.8979  13.9650  14.0266
    14.2646  14.3493  14.3828  14.5117  14.7321  14.7605  14.9966  15.0223
    15.0999  15.1195  15.2173  15.2183  15.3361  15.3995  15.4131  15.9133
    15.9350  16.0028  16.1097  16.2405  16.3573  16.3851  16.6192  16.6578
    16.7298  16.8414  16.8992  17.0115  17.1017  17.1806  17.2601  17.4082
    17.4139  17.5779  17.5990  17.7755  17.8661  17.9662  18.0409  18.1742
    18.1819  18.3244  18.3288  18.3957  18.6152  18.6423  18.6715  18.7519
    18.8444  18.9292  18.9772  19.0696  19.1915  19.2470  19.4486  19.6244
    19.6908  19.7227  19.8093  19.9636  19.9910  20.0681  20.1546  20.2780
    20.3831  20.4170  20.6313  20.6614  20.8389  20.8485  20.8533  21.0042
    21.0722  21.1350  21.2290  21.3205  21.4080  21.4677  21.5403  21.6699
    21.7818  21.8943  22.0116  22.0453  22.1484  22.2153  22.2868  22.3206
    22.5464  22.6835  22.6905  22.7804  22.9547  22.9743  23.0553  23.1717
    23.2114  23.3049  23.4515  23.4716  23.5442  23.6639  23.6903  23.7789
    23.8569  23.9568  24.1010  24.2234  24.2251  24.3146  24.3273  24.5638
    24.6516  24.7699  24.8335  24.8588  24.8592  24.8898  25.0382  25.1691
    25.2427  25.2674  25.3639  25.3923  25.4649  25.5335  25.5761  25.8060
    25.8393  25.9466  25.9654  26.0422  26.1727  26.2338  26.3070  26.4850
    26.5172  26.5963  26.7690  26.7741  26.8370  26.9283  27.0261  27.0278
    27.1751  27.2101  27.2956  27.3366  27.3725  27.4208  27.5488  27.6603
    27.7895  27.7981  27.8179  27.9484  28.0027  28.0892  28.1718  28.1803
    28.2673  28.3470  28.3768  28.5179  28.5843  28.7708  28.7857  28.8629
    28.9234  28.9960  29.2602  29.3338  29.3379  29.4314  29.6007  29.6015
    29.6812  29.7754

          k = 0.7397-0.0000-1.3417 ( 34420 PWs)   bands (ev):

   -18.0910 -18.0796 -17.7655 -17.7556 -13.9919 -13.9675 -13.9319 -13.9307
   -13.9048 -13.8996 -13.8981 -13.8938 -13.8718 -13.8698 -12.6056 -12.5569
   -11.7548 -11.5817 -11.4247 -11.3804 -11.3628 -11.3535 -11.0859 -11.0665
   -10.6967 -10.6689 -10.1277  -9.9560  -9.4152  -9.3894  -7.6554  -7.6220
    -7.2528  -7.1881  -6.3306  -6.1921  -5.7226  -5.6369  -5.1653  -5.0830
    -4.8477  -4.8176  -4.5203  -4.2403  -4.1049  -4.0715  -3.2608  -3.0422
    -3.0369  -2.9874  -2.8670  -2.8536  -2.7197  -2.6443  -2.4128  -2.3608
    -2.1940  -2.1579  -0.5983  -0.5747  -0.5387  -0.1763  -0.1740   0.1215
     0.1626   0.2448   0.3574   0.4452   0.5567   0.6272   0.6302   0.7458
     0.7474   0.7836   0.9400   0.9517   1.0213   1.1175   1.1684   1.1825
     1.4700   1.4768   5.7023   5.7381   5.9024   6.1021   6.4136   6.4792
     7.1219   7.2759   7.5577   7.7970   8.1641   8.2718   8.4728   8.5098
     8.6499   8.6704   8.7320   8.8342   8.8537   8.8984   9.1138   9.1868
     9.2075   9.2685   9.4048   9.4695   9.4710   9.7062   9.7777   9.8352
     9.8573   9.9094  10.1823  10.1967  10.2104  10.3243  10.4490  10.8484
    10.9093  10.9499  11.0585  11.0786  11.1813  11.1876  11.2788  11.3903
    11.4334  11.4563  11.6987  11.7364  11.8562  11.9676  12.1928  12.2265
    12.3095  12.4247  12.5695  12.6571  12.7554  12.7688  12.8246  12.9848
    13.1727  13.2988  13.4609  13.5313  13.6165  13.7210  13.8719  13.9014
    13.9817  14.3003  14.3721  14.4653  14.5778  14.6601  14.7960  15.0296
    15.1886  15.1911  15.2941  15.3141  15.4927  15.6417  15.6442  15.7137
    15.7618  15.9146  16.1037  16.2545  16.2955  16.3234  16.3780  16.5568
    16.6144  16.6164  16.7616  16.9298  17.0296  17.0421  17.0834  17.2108
    17.4037  17.5310  17.6381  17.6550  17.6665  17.9833  18.0001  18.1736
    18.1921  18.2776  18.3595  18.3806  18.4021  18.4702  18.8747  18.9915
    19.0020  19.0338  19.1398  19.1936  19.2181  19.2645  19.3307  19.3752
    19.4610  19.5044  19.5476  19.7841  20.0185  20.0708  20.1425  20.1611
    20.2271  20.4803  20.4880  20.6199  20.6952  20.7551  20.9076  21.0205
    21.1082  21.2207  21.2719  21.2906  21.4245  21.6185  21.6749  21.6875
    21.7204  21.7781  21.7875  21.9031  22.1910  22.1960  22.3543  22.3872
    22.4281  22.5415  22.5667  22.6096  22.6922  22.7390  22.7659  22.8575
    22.9524  23.0455  23.3034  23.3437  23.4068  23.5135  23.5226  23.6256
    23.7630  23.7870  23.8111  23.8769  23.8896  24.0257  24.1809  24.2231
    24.2859  24.3613  24.3783  24.7610  24.9518  25.0460  25.1201  25.1759
    25.2631  25.2702  25.3414  25.4827  25.6061  25.6128  25.7856  25.8056
    25.8456  26.0069  26.0440  26.2174  26.3826  26.4712  26.5486  26.6653
    26.7014  26.7705  26.7803  26.8318  26.9732  27.0537  27.1047  27.1424
    27.2080  27.3423  27.3812  27.4763  27.5474  27.5795  27.6136  27.6305
    27.9668  27.9812  28.0828  28.1213  28.1511  28.2367  28.2817  28.2863
    28.3305  28.5197  28.5459  28.6216  28.7939  28.8226  28.9353  28.9999
    29.1429  29.1992  29.3188  29.3282  29.5484  29.6293  29.6806  29.6933
    29.7204  29.8295

          k = 0.1849-0.1833 0.4472 ( 34402 PWs)   bands (ev):

   -18.0893 -18.0813 -17.7640 -17.7570 -13.9919 -13.9675 -13.9319 -13.9307
   -13.9048 -13.8996 -13.8981 -13.8938 -13.8718 -13.8698 -12.5982 -12.5638
   -11.7558 -11.5806 -11.4290 -11.3811 -11.3622 -11.3503 -11.0852 -11.0697
   -10.6922 -10.6736 -10.1007  -9.9790  -9.4117  -9.3935  -7.6513  -7.6277
    -7.2427  -7.1970  -6.3092  -6.2118  -5.7118  -5.6510  -5.1678  -5.0904
    -4.8529  -4.8229  -4.4678  -4.2733  -4.0997  -4.0758  -3.2231  -3.0862
    -3.0226  -2.9896  -2.8759  -2.8417  -2.7327  -2.6417  -2.4025  -2.3653
    -2.1879  -2.1624  -0.6000  -0.5858  -0.5177  -0.1967  -0.1617   0.1007
     0.1444   0.2334   0.3646   0.4532   0.5649   0.6109   0.6607   0.7285
     0.7711   0.8070   0.9377   0.9739   1.0159   1.1111   1.1298   1.1713
     1.4602   1.5149   5.7044   5.7456   5.9102   6.0607   6.3864   6.4829
     7.1390   7.3786   7.4645   7.8661   8.0933   8.2541   8.4632   8.5615
     8.6040   8.6616   8.7020   8.7981   8.9107   8.9291   9.0853   9.1533
     9.2512   9.2978   9.4239   9.4338   9.5207   9.6250   9.7649   9.7908
     9.8230  10.0622  10.1125  10.1882  10.3823  10.4186  10.4974  10.7344
    10.8430  10.9471  11.0137  11.0572  11.0951  11.1070  11.2243  11.4127
    11.5099  11.6069  11.6934  11.7716  11.8701  11.9741  12.0598  12.2578
    12.3570  12.4186  12.4370  12.6323  12.6646  12.7442  12.9537  12.9716
    13.2115  13.3082  13.4679  13.5758  13.6659  13.8461  13.8916  13.9531
    14.1560  14.2346  14.3803  14.4727  14.6413  14.6673  14.8204  14.9309
    15.1536  15.1925  15.2298  15.2930  15.4031  15.4918  15.6420  15.7445
    15.8137  15.9789  16.0796  16.1770  16.2576  16.3498  16.3944  16.5625
    16.6173  16.6952  16.8617  16.9472  17.0659  17.0879  17.1962  17.2497
    17.2603  17.3854  17.5306  17.6950  17.7469  17.9008  17.9862  18.0305
    18.0715  18.1769  18.2929  18.3356  18.4403  18.5474  18.6032  18.7271
    18.8120  19.0358  19.0575  19.2292  19.2745  19.3500  19.4176  19.4968
    19.5568  19.6663  19.7777  19.8820  19.9444  20.0044  20.0929  20.2252
    20.3675  20.4074  20.4871  20.5381  20.6030  20.7112  20.8240  20.9412
    21.0547  21.1436  21.2965  21.3523  21.4626  21.5338  21.6166  21.7201
    21.7883  21.8753  21.9201  22.0258  22.0867  22.1968  22.2993  22.3712
    22.4570  22.5655  22.6442  22.7301  22.7608  22.8937  22.9426  23.1246
    23.1640  23.2434  23.2731  23.2764  23.4527  23.5431  23.5696  23.6634
    23.7436  23.8083  23.9049  24.0330  24.0441  24.1137  24.2102  24.2943
    24.3457  24.4428  24.5934  24.7076  24.7776  24.8283  24.9175  25.0347
    25.0633  25.1816  25.2949  25.3571  25.6202  25.6315  25.6832  25.7888
    25.8503  25.9474  26.1229  26.1628  26.2978  26.3722  26.4054  26.4469
    26.4949  26.5614  26.7157  26.8131  26.9221  27.0083  27.0433  27.0960
    27.2063  27.2685  27.3437  27.4398  27.4659  27.6337  27.6656  27.7246
    27.8276  27.9025  27.9949  28.0792  28.2331  28.3119  28.3579  28.4255
    28.5392  28.6003  28.7540  28.7944  28.8524  28.8952  28.9936  29.0410
    29.1769  29.2790  29.3127  29.4040  29.4534  29.5321  29.6123  29.6306
    29.7200  29.7683

          k = 0.3698-0.1833 0.0000 ( 34369 PWs)   bands (ev):

   -18.0879 -18.0867 -17.7630 -17.7614 -14.0213 -13.9881 -13.9310 -13.9287
   -13.9073 -13.8996 -13.8974 -13.8915 -13.8723 -13.8694 -12.5878 -12.5757
   -11.7901 -11.5700 -11.4261 -11.3509 -11.3191 -11.2978 -11.0865 -11.0818
   -10.6832 -10.6403 -10.0387  -9.9787  -9.3751  -9.3737  -7.7384  -7.7315
    -7.3065  -7.2978  -6.2545  -6.2238  -5.7298  -5.6425  -4.8999  -4.8856
    -4.7899  -4.7252  -4.4384  -4.2796  -4.0937  -4.0678  -3.2102  -3.0710
    -2.9810  -2.9498  -2.8829  -2.8568  -2.8226  -2.6132  -2.4312  -2.4033
    -2.2473  -2.2093  -1.3817  -0.9070  -0.7250  -0.6320  -0.2822   0.1780
     0.3267   0.3955   0.4811   0.5227   0.5936   0.6243   0.6420   0.7408
     0.7880   0.8365   0.9862   1.0206   1.0475   1.0720   1.1360   1.1606
     1.2986   1.3650   5.8262   6.0317   6.1496   6.3613   6.7035   7.2332
     7.3391   7.4800   7.6598   7.7064   7.8851   8.1047   8.3591   8.4910
     8.5321   8.5512   8.6458   8.8172   8.8734   8.9591   8.9944   9.0672
     9.2796   9.2896   9.3957   9.4450   9.5145   9.5583   9.5899   9.7967
     9.7987  10.0442  10.1667  10.2262  10.5393  10.6728  10.8113  10.8452
    10.9935  11.1005  11.1158  11.2703  11.2740  11.3520  11.3990  11.4936
    11.5815  11.6241  11.6591  12.1334  12.1408  12.2165  12.2574  12.3515
    12.3917  12.4518  12.4605  12.5730  12.6267  12.7524  12.8008  12.8811
    13.0710  13.1631  13.3845  13.4842  13.6948  13.8407  13.8659  13.9946
    14.0130  14.0928  14.2435  14.3132  14.4290  14.5476  14.7259  14.7438
    14.9296  15.0168  15.1840  15.2630  15.4196  15.4272  15.5090  15.6637
    15.7423  15.7844  15.8262  16.0293  16.1720  16.1899  16.2864  16.4639
    16.5307  16.6008  16.6685  16.6867  16.9719  17.1586  17.1654  17.2652
    17.4234  17.4377  17.5623  17.7458  17.7753  17.8110  18.0179  18.0411
    18.1228  18.1762  18.2462  18.2655  18.3214  18.4847  18.4945  18.6922
    18.7666  18.8467  19.0015  19.1124  19.2850  19.3731  19.4179  19.6102
    19.6857  19.8238  19.9008  19.9009  19.9746  20.0155  20.0756  20.2453
    20.2819  20.3795  20.4596  20.5669  20.6486  20.7495  20.8904  20.9495
    20.9584  20.9776  21.0119  21.1550  21.2060  21.3843  21.4114  21.5442
    21.7005  21.7897  21.9189  22.0176  22.1732  22.2034  22.2094  22.2859
    22.3749  22.4219  22.5760  22.7266  22.7817  22.9068  22.9881  23.0628
    23.1167  23.1868  23.2876  23.3774  23.4486  23.4796  23.5052  23.5556
    23.6281  23.7891  23.8495  23.9466  24.1182  24.1241  24.2876  24.3470
    24.3636  24.5376  24.5428  24.7002  24.7176  24.8119  24.8511  24.9475
    25.2023  25.2197  25.2303  25.3543  25.4426  25.4816  25.5897  25.7151
    25.7527  25.9114  25.9657  26.0947  26.1883  26.2686  26.3058  26.4336
    26.5304  26.6412  26.6446  26.8116  26.9235  26.9716  26.9951  27.1520
    27.1701  27.3175  27.3402  27.3693  27.4951  27.5002  27.5984  27.7042
    27.8350  27.9666  28.0068  28.1518  28.2255  28.2580  28.3081  28.5058
    28.5097  28.5542  28.6133  28.7768  28.7948  28.8929  29.0648  29.0903
    29.2507  29.4050  29.4529  29.5171  29.5411  29.5647  29.5859  29.7177
    29.8185  29.9492

          k = 0.5547-0.1833-0.4472 ( 34413 PWs)   bands (ev):

   -18.0881 -18.0825 -17.7656 -17.7555 -13.9919 -13.9674 -13.9319 -13.9307
   -13.9048 -13.8996 -13.8981 -13.8938 -13.8718 -13.8698 -12.5859 -12.5749
   -11.7581 -11.5773 -11.4340 -11.3788 -11.3625 -11.3478 -11.1013 -11.0642
   -10.7443 -10.6070 -10.0549 -10.0291  -9.4099  -9.3972  -7.6571  -7.6227
    -7.2356  -7.2033  -6.2760  -6.2386  -5.7425  -5.6281  -5.1833  -5.0916
    -4.9081  -4.7535  -4.4391  -4.2926  -4.1176  -4.0632  -3.1554  -3.1480
    -3.0150  -2.9927  -2.8788  -2.8449  -2.7338  -2.6506  -2.3967  -2.3628
    -2.1821  -2.1670  -0.6106  -0.5983  -0.4818  -0.2406  -0.1365   0.0822
     0.1200   0.2115   0.3695   0.4689   0.5689   0.6190   0.6814   0.7377
     0.7950   0.8738   0.9152   0.9798   1.0294   1.0784   1.1132   1.1563
     1.4199   1.5325   5.7197   5.7809   5.9617   6.0123   6.3625   6.4687
     7.0445   7.5036   7.6227   7.8610   7.8860   8.1421   8.3143   8.4198
     8.5769   8.6545   8.7546   8.9044   8.9741   9.0003   9.1257   9.1687
     9.3214   9.3649   9.4165   9.4995   9.5961   9.6647   9.7318   9.7782
     9.9679  10.0330  10.0936  10.1943  10.3340  10.4112  10.4860  10.5679
    10.7776  10.8077  10.9137  10.9960  11.0868  11.1756  11.3527  11.3939
    11.4877  11.5277  11.7260  11.7817  11.8223  11.9476  12.0915  12.1960
    12.3766  12.4202  12.4273  12.5433  12.7174  12.9555  13.0096  13.0862
    13.1998  13.3775  13.4980  13.6412  13.8077  13.8461  13.9640  14.0173
    14.1341  14.2293  14.3587  14.5869  14.6679  14.7370  14.9131  14.9398
    15.0390  15.1216  15.2772  15.3945  15.4382  15.5386  15.5951  15.7295
    15.8100  15.9366  16.0339  16.1575  16.2590  16.3506  16.3940  16.5328
    16.5561  16.5942  16.6192  16.8769  16.9575  16.9962  17.0936  17.1051
    17.2604  17.4268  17.5011  17.5813  17.6604  17.8076  17.8137  17.9641
    18.0842  18.1221  18.2199  18.3504  18.4094  18.5367  18.6443  18.7897
    18.8316  18.9303  18.9386  19.0719  19.1130  19.3317  19.4013  19.4536
    19.6436  19.6637  19.9106  19.9432  20.0418  20.1286  20.2441  20.3620
    20.4143  20.4571  20.5287  20.6062  20.6598  20.7505  20.9394  21.0102
    21.0737  21.1959  21.3215  21.4111  21.4461  21.5837  21.6068  21.7251
    21.8267  21.8503  21.9954  22.0371  22.0950  22.2712  22.3231  22.4349
    22.5194  22.6216  22.6692  22.7188  22.7702  22.8956  22.9882  23.0769
    23.1067  23.2897  23.3361  23.3996  23.4567  23.5947  23.6101  23.6876
    23.8529  23.8837  23.9995  24.0465  24.1046  24.2556  24.3545  24.3937
    24.6040  24.6986  24.7663  24.7948  24.8273  24.9440  25.0364  25.1244
    25.1348  25.1798  25.2913  25.3283  25.4790  25.5490  25.6006  25.6667
    25.7336  25.9130  25.9749  26.0214  26.1284  26.1936  26.2488  26.3799
    26.4481  26.4759  26.5150  26.6336  26.7284  26.8165  26.9088  27.0980
    27.1506  27.2355  27.3027  27.3649  27.4383  27.4939  27.6242  27.7416
    27.8065  27.8946  27.9545  28.0712  28.2085  28.2478  28.3296  28.3702
    28.4338  28.5285  28.5867  28.6469  28.7218  28.8254  28.8424  29.0234
    29.1498  29.2211  29.3105  29.3627  29.4041  29.5226  29.6094  29.6841
    29.7885  29.8185

          k = 0.7397-0.1833-0.8945 ( 34438 PWs)   bands (ev):

   -18.0840 -18.0828 -17.7595 -17.7579 -13.9514 -13.9513 -13.9355 -13.9354
   -13.8993 -13.8993 -13.8992 -13.8992 -13.8707 -13.8707 -12.5857 -12.5741
   -11.6570 -11.6551 -11.4312 -11.4287 -11.4059 -11.3932 -11.0782 -11.0623
   -10.7407 -10.6621 -10.1135 -10.0247  -9.4313  -9.4268  -7.5475  -7.5426
    -7.1402  -7.1352  -6.3005  -6.2697  -5.7225  -5.6358  -5.3618  -5.3529
    -4.9024  -4.8231  -4.4610  -4.2832  -4.1104  -4.0995  -3.2476  -3.1574
    -2.9781  -2.9600  -2.8662  -2.8596  -2.7137  -2.6516  -2.3689  -2.3315
    -2.1309  -2.1097  -0.2785  -0.2670  -0.2549  -0.2135  -0.0699   0.0242
     0.1586   0.2375   0.4942   0.5154   0.5667   0.6568   0.6993   0.7648
     0.7721   0.8082   0.9769   0.9887   1.0127   1.0324   1.1510   1.1660
     1.8191   1.8446   4.5929   4.6095   5.8441   5.8813   5.9912   5.9914
     7.4922   7.6145   7.8641   8.0492   8.1364   8.2344   8.3436   8.3786
     8.7172   8.7449   8.7789   8.7835   8.9756   9.0078   9.1381   9.1724
     9.3618   9.3628   9.3861   9.4874   9.5432   9.5783   9.7021   9.9003
     9.9740  10.0309  10.0617  10.2026  10.2590  10.3450  10.5720  10.6224
    10.6478  10.7333  10.9529  11.0354  11.0861  11.0917  11.1739  11.3019
    11.3181  11.4394  11.4591  11.5131  11.6231  11.7200  11.7362  12.2065
    12.2303  12.3252  12.5086  12.6752  12.8632  12.9139  13.0768  13.1159
    13.1532  13.2853  13.3538  13.3870  13.7492  13.7599  13.9203  13.9784
    14.1857  14.3604  14.4453  14.5487  14.6078  14.6285  14.7725  15.1137
    15.2019  15.2575  15.2660  15.4614  15.5726  15.6050  15.7487  15.7855
    15.9358  15.9593  16.0804  16.1144  16.3099  16.3227  16.4465  16.5696
    16.7822  16.8213  16.8861  17.0922  17.1708  17.1936  17.2840  17.3339
    17.5004  17.6054  17.7123  17.7796  17.9404  18.0474  18.0480  18.0626
    18.0826  18.1584  18.3274  18.4100  18.4298  18.4915  18.6578  18.7447
    18.9740  18.9998  19.0324  19.0425  19.2228  19.3295  19.3550  19.4133
    19.6102  19.6238  19.6473  19.9723  20.0708  20.1459  20.1959  20.2788
    20.3689  20.4290  20.5415  20.5496  20.8232  20.8929  20.8990  20.9758
    21.1688  21.1731  21.2135  21.3475  21.5379  21.6185  21.6740  21.7604
    21.8455  21.8881  21.9612  21.9776  22.0082  22.2027  22.2030  22.4924
    22.5792  22.6191  22.7323  22.8088  22.8775  23.0840  23.1249  23.2591
    23.2927  23.3756  23.4043  23.4995  23.5425  23.5526  23.7034  23.7196
    23.8417  23.9091  24.1641  24.1722  24.2007  24.3854  24.4105  24.4114
    24.4916  24.6214  24.7747  24.7877  24.8402  24.9836  25.0140  25.2088
    25.2737  25.2926  25.3650  25.4364  25.4870  25.5348  25.5474  25.6092
    25.6832  25.8211  26.0494  26.1789  26.2038  26.2796  26.3316  26.4107
    26.6321  26.7186  26.7676  26.9058  26.9123  26.9635  27.0334  27.0686
    27.2108  27.2695  27.2696  27.3516  27.4525  27.4574  27.5815  27.6128
    27.7278  27.7511  27.8229  27.9329  28.0142  28.0479  28.1012  28.1763
    28.3524  28.3588  28.4813  28.5186  28.7327  28.7378  28.7863  28.9861
    29.0395  29.0807  29.2078  29.2963  29.3822  29.4177  29.4772  29.5835
    29.6005  29.7243

          k = 0.1849-0.3666 0.8945 ( 34430 PWs)   bands (ev):

   -18.0834 -18.0834 -17.7587 -17.7587 -13.9513 -13.9513 -13.9355 -13.9355
   -13.8993 -13.8993 -13.8992 -13.8992 -13.8707 -13.8707 -12.5799 -12.5799
   -11.6561 -11.6561 -11.4348 -11.4348 -11.3952 -11.3952 -11.0692 -11.0692
   -10.7046 -10.7046 -10.0667 -10.0667  -9.4290  -9.4290  -7.5449  -7.5449
    -7.1385  -7.1385  -6.2834  -6.2834  -5.6788  -5.6788  -5.3599  -5.3599
    -4.8719  -4.8719  -4.3668  -4.3668  -4.1002  -4.1002  -3.1950  -3.1950
    -2.9656  -2.9656  -2.8853  -2.8853  -2.6734  -2.6734  -2.3474  -2.3474
    -2.1197  -2.1197  -0.2742  -0.2742  -0.2376  -0.2376  -0.0334  -0.0334
     0.2124   0.2124   0.5099   0.5099   0.5949   0.5949   0.7464   0.7464
     0.7927   0.7928   0.9570   0.9570   1.0364   1.0364   1.1626   1.1626
     1.8376   1.8376   4.6034   4.6034   5.8291   5.8291   6.0115   6.0115
     7.5316   7.5316   8.0361   8.0361   8.2053   8.2053   8.3222   8.3222
     8.6448   8.6448   8.7866   8.7866   9.0103   9.0103   9.1446   9.1446
     9.3279   9.3279   9.4744   9.4744   9.5701   9.5701   9.8616   9.8616
    10.0197  10.0197  10.0860  10.0860  10.2609  10.2609  10.5873  10.5873
    10.7750  10.7750  10.9319  10.9319  11.0928  11.0928  11.2764  11.2764
    11.3971  11.3971  11.5432  11.5432  11.7438  11.7438  11.9263  11.9263
    12.1778  12.1778  12.4751  12.4751  12.9266  12.9266  13.0755  13.0755
    13.2534  13.2534  13.3594  13.3594  13.7845  13.7845  14.0152  14.0153
    14.2337  14.2337  14.4419  14.4419  14.5727  14.5727  14.9454  14.9454
    15.1217  15.1217  15.2943  15.2943  15.6285  15.6285  15.9251  15.9251
    16.0386  16.0386  16.2309  16.2309  16.3863  16.3863  16.4983  16.4984
    16.8280  16.8280  17.0339  17.0339  17.1717  17.1717  17.3624  17.3624
    17.4489  17.4489  17.5587  17.5587  17.7705  17.7705  18.0602  18.0603
    18.1201  18.1201  18.3492  18.3492  18.6067  18.6067  18.8269  18.8269
    18.9246  18.9246  19.0313  19.0313  19.1853  19.1853  19.3634  19.3634
    19.6645  19.6645  19.7073  19.7073  20.1584  20.1584  20.2902  20.2902
    20.4879  20.4879  20.7050  20.7050  20.8326  20.8326  21.0048  21.0048
    21.2556  21.2556  21.2854  21.2854  21.4089  21.4089  21.6122  21.6122
    21.7994  21.7994  21.9809  21.9809  22.1408  22.1408  22.4283  22.4283
    22.5030  22.5030  22.7428  22.7428  22.9083  22.9083  23.1397  23.1397
    23.3504  23.3504  23.4138  23.4138  23.6734  23.6734  23.7507  23.7507
    23.8625  23.8625  24.0050  24.0050  24.2586  24.2586  24.4019  24.4019
    24.6545  24.6545  24.7998  24.7998  24.9485  24.9485  25.0713  25.0713
    25.1341  25.1341  25.3773  25.3773  25.4603  25.4603  25.7643  25.7643
    25.9148  25.9148  26.0796  26.0796  26.2179  26.2179  26.4189  26.4189
    26.6666  26.6666  26.8604  26.8604  26.9608  26.9608  27.0980  27.0980
    27.2453  27.2453  27.3648  27.3648  27.4989  27.4989  27.6256  27.6256
    27.7179  27.7179  27.8744  27.8744  28.0737  28.0737  28.3124  28.3124
    28.3960  28.3960  28.5012  28.5012  28.7130  28.7130  28.9046  28.9046
    29.0153  29.0153  29.1790  29.1790  29.3235  29.3235  29.3775  29.3775
    29.5792  29.5792

          k = 0.3698-0.3666 0.4472 ( 34434 PWs)   bands (ev):

   -18.0854 -18.0853 -17.7605 -17.7605 -13.9919 -13.9675 -13.9319 -13.9307
   -13.9048 -13.8996 -13.8981 -13.8938 -13.8718 -13.8698 -12.5818 -12.5799
   -11.7568 -11.5795 -11.4325 -11.3844 -11.3579 -11.3491 -11.0787 -11.0784
   -10.6860 -10.6801 -10.0469 -10.0291  -9.4035  -9.4026  -7.6409  -7.6400
    -7.2193  -7.2192  -6.2631  -6.2561  -5.6861  -5.6806  -5.1721  -5.0967
    -4.8540  -4.8289  -4.3737  -4.3515  -4.0904  -4.0835  -3.1761  -3.1101
    -3.0234  -3.0030  -2.8860  -2.8530  -2.7037  -2.6608  -2.3811  -2.3809
    -2.1760  -2.1732  -0.5990  -0.5970  -0.4940  -0.2225  -0.1484   0.0822
     0.1247   0.2201   0.3730   0.4614   0.5743   0.6024   0.6695   0.7267
     0.7699   0.8967   0.9123   0.9829   1.0386   1.0488   1.1076   1.1609
     1.4698   1.5348   5.7003   5.7506   5.9474   5.9954   6.3604   6.4988
     7.2211   7.2813   7.5574   7.9234   7.9666   8.2110   8.4968   8.4988
     8.5749   8.6985   8.7259   8.8212   8.9104   8.9447   9.0508   9.1435
     9.2313   9.3228   9.4084   9.4349   9.6243   9.6792   9.6912   9.8115
     9.9163   9.9286  10.1932  10.2465  10.2837  10.4566  10.5630  10.7534
    10.8368  10.8619  10.9362  10.9951  11.0817  11.1183  11.2410  11.2752
    11.5686  11.6304  11.7261  11.7281  11.8680  12.0440  12.1510  12.2671
    12.2965  12.4195  12.4447  12.5809  12.7168  12.7693  12.8739  13.0818
    13.1692  13.3250  13.3379  13.6264  13.6712  13.9426  13.9863  14.1245
    14.1710  14.1726  14.3228  14.4956  14.5383  14.7388  14.8828  15.0255
    15.0541  15.1105  15.2210  15.3574  15.3603  15.5385  15.6515  15.7414
    15.8009  15.9295  16.0088  16.1701  16.2831  16.3220  16.4774  16.5255
    16.6921  16.6958  16.8537  16.8838  16.9476  17.1100  17.1318  17.2623
    17.3100  17.4122  17.5509  17.6130  17.7162  17.9097  17.9126  18.0017
    18.0629  18.0875  18.3237  18.3742  18.4766  18.6042  18.6458  18.6472
    18.6597  18.7978  19.0211  19.1408  19.2039  19.2122  19.4051  19.4964
    19.6063  19.7232  19.7994  19.9016  20.0498  20.0837  20.1768  20.2523
    20.3204  20.3953  20.4152  20.4815  20.6093  20.7434  20.8743  20.9417
    20.9896  21.0692  21.1761  21.2491  21.4832  21.5003  21.7684  21.9159
    21.9772  22.0524  22.1217  22.1273  22.1455  22.2473  22.4059  22.4396
    22.5812  22.5859  22.6091  22.7078  22.8585  22.9435  22.9637  23.0248
    23.0355  23.1899  23.3718  23.4130  23.4529  23.6388  23.6741  23.6767
    23.7594  23.7850  23.8682  23.9691  24.0463  24.3013  24.3089  24.3407
    24.4246  24.5350  24.6074  24.6987  24.7494  24.8648  24.8765  24.9440
    25.1595  25.1824  25.2162  25.3943  25.3989  25.5889  25.5890  25.6633
    25.8199  25.8466  26.0188  26.0776  26.0865  26.2235  26.3170  26.4284
    26.4627  26.5823  26.7618  26.7855  26.7885  27.0217  27.0326  27.1018
    27.1406  27.1828  27.2589  27.2706  27.5339  27.6198  27.6746  27.6843
    27.9882  27.9957  28.0935  28.1664  28.2351  28.2665  28.3957  28.4211
    28.4300  28.5453  28.6630  28.7902  28.8362  28.8760  28.9899  29.0638
    29.1192  29.1948  29.3708  29.3815  29.4871  29.5742  29.6132  29.6730
    29.6895  29.7431

          k = 0.5547-0.3666-0.0000 ( 34373 PWs)   bands (ev):

   -18.0921 -18.0824 -17.7683 -17.7563 -14.0213 -13.9881 -13.9310 -13.9287
   -13.9073 -13.8996 -13.8974 -13.8915 -13.8723 -13.8694 -12.5977 -12.5656
   -11.7901 -11.5688 -11.4273 -11.3517 -11.3174 -11.2954 -11.1054 -11.0670
   -10.7137 -10.6050 -10.0460  -9.9755  -9.3850  -9.3638  -7.7541  -7.7135
    -7.3311  -7.2755  -6.2837  -6.1931  -5.7051  -5.6678  -4.9120  -4.8874
    -4.7868  -4.7248  -4.3769  -4.3333  -4.1093  -4.0515  -3.2101  -3.0502
    -3.0127  -2.9549  -2.8785  -2.8519  -2.8175  -2.6143  -2.4290  -2.3993
    -2.2496  -2.2074  -1.3796  -0.9072  -0.7326  -0.6248  -0.2839   0.1919
     0.3144   0.3657   0.5246   0.5375   0.5804   0.6014   0.6528   0.7096
     0.8153   0.8553   0.9253   1.0061   1.0409   1.0761   1.1296   1.1692
     1.3475   1.3755   5.8322   6.0145   6.1147   6.3306   6.8497   7.1499
     7.3552   7.4894   7.6503   7.7001   7.8845   8.1810   8.3556   8.4465
     8.5224   8.5336   8.5643   8.6869   8.8907   8.9612   8.9975   9.1401
     9.3164   9.3358   9.4316   9.4416   9.4811   9.6755   9.6951   9.7626
     9.8433   9.8817  10.1351  10.3113  10.3608  10.6214  10.7763  10.9381
    10.9988  11.1125  11.1803  11.2764  11.2832  11.3556  11.4688  11.5141
    11.5329  11.6682  11.7326  11.9425  12.0046  12.1379  12.1380  12.3819
    12.4414  12.4712  12.5791  12.7056  12.7714  12.8050  12.9442  12.9761
    13.0309  13.3307  13.3669  13.4814  13.5720  13.6434  13.7480  13.8824
    13.9262  14.1298  14.1387  14.2301  14.3788  14.4995  14.6189  14.7316
    14.9590  15.0953  15.1122  15.3067  15.3313  15.4458  15.5203  15.6398
    15.7314  15.8054  15.9364  15.9756  16.2339  16.3060  16.4793  16.4895
    16.5196  16.5901  16.8424  16.8838  17.0310  17.0538  17.2941  17.3174
    17.4174  17.5555  17.6078  17.6124  17.6970  17.7813  17.9398  18.0143
    18.0685  18.1018  18.1714  18.3030  18.4158  18.4864  18.6260  18.6407
    18.8164  18.9515  18.9681  19.0204  19.2032  19.2676  19.3323  19.4610
    19.5336  19.7024  19.8677  19.8901  19.9300  19.9978  20.0011  20.1948
    20.3573  20.3888  20.4744  20.5559  20.6105  20.7020  20.7382  20.8682
    21.0406  21.1145  21.1690  21.2646  21.4146  21.4507  21.5089  21.5290
    21.9079  21.9725  21.9851  22.0200  22.1503  22.2077  22.3704  22.4160
    22.4178  22.5150  22.5215  22.6021  22.7082  22.7104  22.9371  22.9741
    23.0419  23.2094  23.2825  23.3716  23.4173  23.4302  23.4909  23.5321
    23.6270  23.6557  23.7988  23.9013  24.0182  24.2000  24.2399  24.2564
    24.3184  24.5483  24.5637  24.5685  24.7100  24.8315  24.9113  24.9602
    25.0364  25.0759  25.2326  25.3138  25.3435  25.5043  25.6407  25.7182
    25.7582  26.0171  26.0373  26.0777  26.2181  26.2787  26.4518  26.5195
    26.6772  26.7050  26.7723  26.8275  26.8763  26.9393  26.9697  27.0824
    27.2267  27.3289  27.3900  27.5106  27.5559  27.6755  27.7169  27.7198
    27.8610  27.9836  28.0960  28.1777  28.1930  28.2311  28.4769  28.4940
    28.5289  28.6648  28.6843  28.7566  28.8799  28.9845  29.0497  29.1250
    29.1803  29.2803  29.3171  29.3933  29.4757  29.4868  29.6426  29.8003
    29.8679  29.8753

          k = 0.7397-0.3666-0.4472 ( 34408 PWs)   bands (ev):

   -18.0901 -18.0804 -17.7666 -17.7545 -13.9919 -13.9675 -13.9319 -13.9307
   -13.9048 -13.8996 -13.8981 -13.8938 -13.8718 -13.8698 -12.5967 -12.5646
   -11.7570 -11.5783 -11.4314 -11.3795 -11.3567 -11.3539 -11.1002 -11.0628
   -10.7338 -10.6239 -10.0758 -10.0060  -9.4140  -9.3920  -7.6598  -7.6186
    -7.2477  -7.1922  -6.3077  -6.2123  -5.7022  -5.6647  -5.1742  -5.0832
    -4.9069  -4.7792  -4.3800  -4.3449  -4.1187  -4.0635  -3.1980  -3.1195
    -3.0163  -2.9879  -2.8858  -2.8233  -2.7230  -2.6642  -2.3801  -2.3771
    -2.1897  -2.1605  -0.6018  -0.5986  -0.4942  -0.2195  -0.1531   0.0924
     0.1379   0.2245   0.3738   0.4636   0.5437   0.5853   0.7194   0.7288
     0.7951   0.8122   0.9233   0.9515   1.0008   1.1146   1.1229   1.1616
     1.4751   1.5351   5.6952   5.7533   5.9192   6.0131   6.4056   6.4590
     7.2322   7.4199   7.5012   7.8829   7.9190   8.2804   8.3846   8.3849
     8.5754   8.6628   8.7638   8.7649   8.9142   9.0557   9.1569   9.1822
     9.2537   9.3481   9.4197   9.4731   9.5071   9.6454   9.7042   9.7626
     9.8187  10.0854  10.1326  10.2596  10.3941  10.4225  10.5322  10.7004
    10.7265  10.9028  11.0213  11.0850  11.0885  11.2095  11.2137  11.4617
    11.5242  11.5797  11.6510  11.6627  11.9032  11.9805  12.0120  12.1628
    12.2998  12.3429  12.4956  12.5138  12.6745  12.7600  12.9047  13.1370
    13.3707  13.4081  13.5093  13.7035  13.8160  13.8550  13.8879  14.0124
    14.0853  14.2870  14.3474  14.4836  14.5610  14.6425  14.7805  14.8344
    15.0732  15.1766  15.2133  15.2993  15.3828  15.5415  15.6529  15.7486
    15.9282  16.0292  16.0664  16.1500  16.2019  16.4190  16.4357  16.4765
    16.5578  16.7165  16.7377  16.7855  16.9225  17.0688  17.2204  17.2305
    17.3658  17.3989  17.5993  17.6668  17.7023  17.7930  17.8430  17.9263
    18.0757  18.1538  18.3866  18.4114  18.6371  18.6400  18.7642  18.8457
    18.9016  18.9834  19.1088  19.1714  19.2437  19.2609  19.3953  19.4461
    19.5571  19.6330  19.6439  19.6965  19.8973  20.0045  20.0613  20.1094
    20.2973  20.4268  20.5023  20.5776  20.6544  20.7067  20.7645  21.0675
    21.0710  21.1744  21.1785  21.2504  21.4229  21.4667  21.5956  21.6246
    21.8147  21.8285  21.8983  21.9552  22.1236  22.1389  22.2507  22.4259
    22.5297  22.5939  22.7088  22.8278  22.9439  23.0572  23.0713  23.1790
    23.3547  23.3868  23.4706  23.4994  23.5203  23.6484  23.6985  23.7512
    23.8379  23.9183  23.9682  24.0145  24.1360  24.2485  24.2965  24.3609
    24.4736  24.4958  24.6167  24.6578  24.6925  24.8851  25.0280  25.1135
    25.2104  25.2582  25.3041  25.3419  25.3477  25.4597  25.6171  25.6289
    25.7191  25.7830  25.8514  26.0195  26.0650  26.0959  26.2870  26.3762
    26.4331  26.6950  26.7414  26.8467  26.9081  26.9788  27.0022  27.0412
    27.1119  27.1632  27.2401  27.3205  27.4129  27.5819  27.6214  27.6979
    27.7104  27.7319  27.9587  27.9850  28.1576  28.2882  28.3247  28.4220
    28.5299  28.6195  28.7129  28.8212  28.8661  28.9235  29.0028  29.1468
    29.2094  29.2213  29.3439  29.4155  29.4588  29.5017  29.6281  29.6623
    29.7736  29.8467

          k = 0.3698-0.5500 0.8945 ( 34432 PWs)   bands (ev):

   -18.0840 -18.0829 -17.7594 -17.7579 -13.9514 -13.9513 -13.9355 -13.9354
   -13.8993 -13.8993 -13.8992 -13.8992 -13.8707 -13.8707 -12.5855 -12.5741
   -11.6578 -11.6543 -11.4387 -11.4367 -11.3989 -11.3862 -11.0750 -11.0618
   -10.7427 -10.6625 -10.1136 -10.0247  -9.4315  -9.4269  -7.5472  -7.5425
    -7.1417  -7.1367  -6.2943  -6.2657  -5.7223  -5.6359  -5.3694  -5.3557
    -4.9050  -4.8299  -4.4617  -4.2842  -4.1024  -4.0905  -3.1969  -3.1761
    -2.9668  -2.9579  -2.9368  -2.8611  -2.7240  -2.6195  -2.3687  -2.3309
    -2.1308  -2.1097  -0.2856  -0.2728  -0.2506  -0.2220  -0.0582   0.0180
     0.1621   0.2410   0.5087   0.5153   0.6083   0.6251   0.7095   0.7409
     0.7931   0.8156   0.9228   0.9777   1.0283   1.0636   1.1440   1.1599
     1.8101   1.8485   4.5958   4.6161   5.8370   5.8786   5.9889   6.0121
     7.4188   7.5907   7.9391   7.9596   8.2377   8.3317   8.3453   8.4668
     8.5181   8.6274   8.7164   8.8538   8.9789   9.0499   9.1684   9.2139
     9.2675   9.3708   9.4843   9.4896   9.5779   9.6159   9.8109   9.8661
     9.9403  10.0443  10.0761  10.1191  10.2991  10.3046  10.3972  10.5828
    10.6951  10.8072  10.8674  10.9176  11.0719  11.1788  11.2069  11.2748
    11.2854  11.4722  11.4824  11.5323  11.7094  11.7685  11.8514  12.1257
    12.1271  12.2989  12.6700  12.6769  12.8266  12.9801  12.9999  13.0634
    13.1777  13.2327  13.3897  13.3974  13.8022  13.8886  14.0044  14.0335
    14.0625  14.3527  14.3607  14.5756  14.6623  14.7655  14.7961  14.8884
    15.0144  15.1636  15.1714  15.3825  15.4241  15.5023  15.6858  15.7814
    16.0186  16.0462  16.1714  16.3020  16.3797  16.4257  16.4906  16.7190
    16.8446  16.9007  16.9486  17.0308  17.0466  17.2419  17.2451  17.3803
    17.4913  17.4959  17.6031  17.6750  17.7972  17.8830  18.0716  18.1154
    18.1343  18.1666  18.2546  18.3444  18.4837  18.5567  18.6269  18.7523
    18.9429  19.0624  19.0807  19.1958  19.2167  19.2623  19.3872  19.4169
    19.6026  19.6856  19.9101  19.9530  20.0310  20.1987  20.2676  20.3455
    20.4274  20.5311  20.6075  20.7129  20.7407  20.7948  20.9336  21.0894
    21.1359  21.1921  21.2876  21.3176  21.3959  21.4493  21.5787  21.6163
    21.7798  21.8863  21.9117  22.0261  22.0861  22.1754  22.2899  22.3331
    22.4965  22.5067  22.6666  22.7810  22.8365  22.9791  23.0110  23.0721
    23.1663  23.2437  23.4194  23.5049  23.5426  23.6496  23.7361  23.7847
    23.9876  24.0715  24.1231  24.2097  24.2349  24.2922  24.3645  24.5111
    24.5504  24.7138  24.7382  24.8203  24.8495  24.8783  25.1314  25.1653
    25.2158  25.3191  25.3285  25.5012  25.5806  25.6901  25.7589  25.7802
    25.8141  25.9552  25.9748  26.0709  26.2206  26.2496  26.3194  26.3882
    26.4086  26.5548  26.5635  26.7671  26.8174  26.8550  27.0696  27.1347
    27.2447  27.2658  27.3618  27.3870  27.4837  27.5532  27.5884  27.6775
    27.7513  27.8267  27.9057  27.9373  28.0659  28.1141  28.1226  28.1452
    28.3503  28.3650  28.3817  28.5724  28.6678  28.7430  28.8849  28.9445
    29.0472  29.0951  29.1517  29.1990  29.2841  29.3773  29.5336  29.5806
    29.6923  29.7769

          k = 0.7397-0.5500-0.0000 ( 34331 PWs)   bands (ev):

   -18.0945 -18.0797 -17.7701 -17.7546 -14.0212 -13.9881 -13.9311 -13.9287
   -13.9073 -13.8996 -13.8974 -13.8915 -13.8723 -13.8694 -12.6106 -12.5534
   -11.7864 -11.5731 -11.4268 -11.3468 -11.3197 -11.2978 -11.1037 -11.0594
   -10.7194 -10.6049 -10.0907  -9.9350  -9.3891  -9.3581  -7.7578  -7.7065
    -7.3489  -7.2611  -6.3172  -6.1595  -5.7004  -5.6656  -4.8906  -4.8811
    -4.7703  -4.7507  -4.4720  -4.2632  -4.1049  -4.0482  -3.2567  -3.0995
    -2.9653  -2.9102  -2.8785  -2.8299  -2.8158  -2.6410  -2.4440  -2.3865
    -2.2786  -2.1845  -1.3461  -0.9346  -0.7369  -0.6515  -0.2567   0.2303
     0.3316   0.3490   0.5243   0.5447   0.5774   0.5897   0.6731   0.7078
     0.7466   0.8817   0.9298   1.0443   1.0543   1.0894   1.1059   1.1774
     1.3033   1.3544   5.9172   5.9392   6.2195   6.2631   6.8357   7.1249
     7.2600   7.4883   7.6177   7.6446   8.1009   8.3463   8.3569   8.4250
     8.4402   8.5531   8.6552   8.6991   8.7865   8.7971   9.1095   9.1192
     9.3200   9.3297   9.4741   9.5040   9.5088   9.6696   9.6911   9.6999
     9.8690   9.8935   9.9739  10.2264  10.3408  10.6368  10.8486  10.8523
    10.9864  11.1530  11.2513  11.2872  11.3079  11.4491  11.5866  11.6790
    11.7110  11.7587  11.7659  11.7742  11.9459  12.0222  12.0532  12.1581
    12.4837  12.5192  12.5412  12.5715  12.8025  12.8149  12.9604  12.9875
    13.0450  13.1506  13.1540  13.4325  13.6659  13.7114  13.8106  13.9373
    14.0071  14.0125  14.1537  14.1834  14.3436  14.5616  14.5818  14.7756
    14.8186  14.8752  14.9095  15.1320  15.3239  15.5079  15.5318  15.7164
    15.7876  15.9344  15.9512  16.0979  16.1659  16.2863  16.4916  16.5598
    16.5957  16.6194  16.8986  16.9037  17.0416  17.0882  17.2546  17.3175
    17.4989  17.5612  17.6814  17.6934  17.7277  18.0551  18.1295  18.1377
    18.1518  18.2434  18.3399  18.4171  18.4380  18.4524  18.5890  18.8076
    18.8444  18.9899  19.2257  19.2450  19.2678  19.2819  19.4792  19.4892
    19.5648  19.5852  19.5884  19.7406  20.0293  20.0557  20.1674  20.2038
    20.2648  20.2871  20.3508  20.4584  20.5529  20.6067  20.7209  20.7444
    21.0455  21.0641  21.0758  21.1333  21.1559  21.3888  21.4388  21.4714
    21.6302  21.7476  21.7743  21.8453  21.8680  22.1384  22.2650  22.2911
    22.3060  22.3388  22.4260  22.4435  22.5287  22.6358  22.7567  22.7885
    23.0007  23.0251  23.1051  23.2334  23.3992  23.5504  23.6412  23.7203
    23.7393  23.7841  23.9334  23.9941  24.0923  24.1304  24.3769  24.3912
    24.4167  24.5632  24.6213  24.6333  24.7603  24.7751  24.8395  24.8629
    24.9956  25.0422  25.3138  25.4374  25.4466  25.6946  25.7544  25.8849
    25.9670  26.1559  26.1610  26.2474  26.2885  26.3285  26.3437  26.5624
    26.6142  26.7841  26.8666  26.8712  26.8814  26.9978  27.0954  27.1301
    27.2765  27.2896  27.4298  27.4672  27.4706  27.5655  27.6141  28.0464
    28.1392  28.2258  28.2337  28.2649  28.2920  28.3710  28.4377  28.6175
    28.6497  28.7214  28.8031  28.8382  28.8666  28.9799  29.0690  29.1088
    29.1403  29.1754  29.2903  29.3497  29.4182  29.6047  29.6077  29.6077
    29.6319  29.8834

          k = 0.5547-0.0000 0.0000 ( 34360 PWs)   bands (ev):

   -18.0912 -18.0833 -17.7695 -17.7551 -14.0213 -13.9880 -13.9310 -13.9287
   -13.9073 -13.8996 -13.8974 -13.8915 -13.8723 -13.8694 -12.5886 -12.5733
   -11.7943 -11.5633 -11.4244 -11.3516 -11.3209 -11.2964 -11.1164 -11.0677
   -10.7339 -10.5654 -10.0213 -10.0075  -9.3852  -9.3653  -7.7592  -7.7091
    -7.3244  -7.2813  -6.2577  -6.2101  -5.7706  -5.6088  -4.9570  -4.9157
    -4.7363  -4.6850  -4.4561  -4.2644  -4.1287  -4.0375  -3.1653  -3.0709
    -2.9658  -2.9656  -2.9083  -2.9051  -2.8234  -2.5884  -2.4165  -2.4108
    -2.2296  -2.2183  -1.4204  -0.8787  -0.7328  -0.6167  -0.3068   0.1978
     0.2531   0.4268   0.4904   0.5882   0.5985   0.6431   0.6931   0.7453
     0.7608   0.7812   0.9734   1.0378   1.0503   1.0539   1.1683   1.1782
     1.2246   1.3539   5.9402   6.0796   6.2001   6.2638   6.5690   7.4112
     7.4659   7.5011   7.5811   7.6698   7.8201   7.8580   8.0976   8.4298
     8.5568   8.6292   8.6628   8.9037   8.9065   9.0222   9.0308   9.1035
     9.2490   9.3486   9.4288   9.4334   9.4761   9.7044   9.7527   9.7893
     9.9965  10.1058  10.1188  10.1700  10.2765  10.5585  10.6720  10.7095
    10.9098  11.1363  11.1657  11.1767  11.2094  11.3165  11.4424  11.4604
    11.6606  11.7445  11.8116  12.0034  12.0344  12.1657  12.2621  12.2947
    12.3271  12.4532  12.5370  12.6337  12.6923  12.7809  12.8797  12.9736
    13.0016  13.4196  13.4641  13.4895  13.7298  13.7855  13.9820  14.0139
    14.1896  14.3706  14.3970  14.4107  14.4924  14.7292  14.7619  14.7953
    14.9766  15.0280  15.0806  15.1420  15.4245  15.4449  15.4817  15.4936
    15.5871  15.6484  15.9492  15.9739  16.1224  16.1340  16.1372  16.2433
    16.2742  16.3481  16.6480  16.6799  16.7140  16.7194  17.0065  17.2934
    17.4578  17.4592  17.5788  17.6401  17.7331  17.7730  17.9263  17.9955
    18.1390  18.1950  18.2307  18.2619  18.3112  18.4397  18.6899  18.8402
    18.9177  19.0637  19.1913  19.2313  19.3482  19.3674  19.4576  19.4682
    19.5823  19.6645  19.9054  19.9095  19.9811  20.0689  20.1136  20.1623
    20.2565  20.2704  20.4642  20.4741  20.5774  20.7169  20.7351  20.9457
    20.9520  20.9995  21.2429  21.3564  21.3682  21.5254  21.6657  21.7842
    21.8463  21.9779  21.9908  22.1414  22.1565  22.2955  22.3267  22.3939
    22.4660  22.5027  22.5430  22.7164  22.7324  22.7511  22.7820  22.8639
    22.9750  23.0384  23.1044  23.2974  23.4705  23.6504  23.7873  23.7905
    23.8260  23.9306  23.9940  24.0447  24.0450  24.2535  24.3751  24.3778
    24.4116  24.4241  24.6231  24.8291  24.9373  24.9792  25.0388  25.0887
    25.1156  25.1587  25.2494  25.3427  25.4046  25.5102  25.6344  25.6961
    25.8496  25.8500  25.9740  25.9900  26.1114  26.1149  26.1364  26.3195
    26.3325  26.5463  26.6719  26.7813  26.8100  26.8316  26.8317  27.0784
    27.1079  27.2346  27.2704  27.2706  27.2736  27.4690  27.5324  27.6079
    27.6210  27.8740  27.8829  28.0468  28.1495  28.2816  28.3083  28.3879
    28.4731  28.4959  28.6984  28.7244  28.7948  28.7960  28.8069  29.0035
    29.1281  29.2474  29.2723  29.3276  29.3639  29.4776  29.4898  29.8282
    29.8704  29.9207

          k = 0.7397-0.0000-0.4472 ( 34432 PWs)   bands (ev):

   -18.0893 -18.0813 -17.7678 -17.7535 -13.9920 -13.9674 -13.9319 -13.9307
   -13.9048 -13.8996 -13.8981 -13.8938 -13.8718 -13.8698 -12.5878 -12.5723
   -11.7594 -11.5750 -11.4351 -11.3739 -11.3647 -11.3481 -11.1151 -11.0592
   -10.7649 -10.5709 -10.0635 -10.0290  -9.4131  -9.3952  -7.6640  -7.6150
    -7.2426  -7.1968  -6.2809  -6.2293  -5.7688  -5.6059  -5.1915  -5.0890
    -4.9338  -4.7017  -4.4794  -4.2648  -4.1317  -4.0558  -3.1854  -3.1118
    -3.0362  -2.9724  -2.8645  -2.8636  -2.7282  -2.6613  -2.4012  -2.3549
    -2.1845  -2.1646  -0.6195  -0.6020  -0.4661  -0.2663  -0.1206   0.0863
     0.1168   0.1940   0.3712   0.4728   0.5888   0.6415   0.6487   0.7446
     0.8558   0.8641   0.8809   0.9997   1.0526   1.0785   1.1090   1.1469
     1.3705   1.5258   5.7295   5.8152   5.9781   6.0392   6.3832   6.4211
     6.9855   7.6049   7.6237   7.7655   7.9475   8.0666   8.1107   8.4730
     8.5587   8.5688   8.8548   8.9115   8.9857   9.0525   9.0731   9.3064
     9.3618   9.4250   9.4773   9.5212   9.5848   9.6068   9.7739   9.9671
     9.9737  10.0734  10.0855  10.1306  10.1335  10.3739  10.3871  10.6505
    10.6822  10.7490  10.9188  10.9268  11.1395  11.2044  11.2959  11.4159
    11.5167  11.5179  11.5386  11.6356  11.8204  11.9712  12.1482  12.3161
    12.3888  12.5074  12.5113  12.7229  12.7890  12.7953  12.8901  13.2137
    13.2558  13.3993  13.5798  13.5849  13.6925  13.9195  14.0194  14.0287
    14.2417  14.3136  14.3655  14.6655  14.6869  14.7577  14.7773  14.9099
    14.9150  15.1416  15.2168  15.4687  15.5191  15.7069  15.7498  15.7972
    15.8536  15.8887  15.9703  16.0915  16.1076  16.3519  16.3562  16.3963
    16.4635  16.6418  16.7364  16.7543  16.8233  16.9146  16.9196  17.1802
    17.3205  17.4328  17.4561  17.4930  17.5476  17.6467  17.8244  17.9850
    18.0044  18.0542  18.1260  18.1271  18.3826  18.4274  18.4510  18.8007
    18.8244  18.8731  19.0917  19.2408  19.3552  19.3948  19.5224  19.5316
    19.6331  19.7381  19.8329  19.8414  20.1877  20.2234  20.2697  20.4059
    20.4884  20.5612  20.6638  20.7047  20.8094  20.8780  20.8929  20.9113
    21.1319  21.2681  21.2935  21.3224  21.4785  21.5091  21.5982  21.6746
    21.7422  22.0047  22.0174  22.1234  22.1767  22.2538  22.3333  22.4279
    22.4741  22.5343  22.5709  22.6352  22.7480  22.8140  22.8687  22.9430
    23.1828  23.2378  23.2453  23.2930  23.5984  23.6325  23.6500  23.7886
    23.9410  23.9970  24.0044  24.0963  24.1128  24.3823  24.3986  24.4693
    24.6370  24.7000  24.8175  24.8301  24.9117  24.9162  25.1112  25.2718
    25.2851  25.2857  25.3329  25.3395  25.5097  25.5964  25.6185  25.6446
    25.8563  25.8752  25.8809  25.9964  26.0556  26.1680  26.1990  26.3060
    26.4237  26.5071  26.5460  26.5934  26.6734  26.7198  26.7569  26.9815
    27.2490  27.3170  27.3858  27.5225  27.6180  27.6489  27.7145  27.7555
    27.8486  27.8607  27.8784  27.8863  28.0088  28.0262  28.0641  28.1404
    28.1890  28.2809  28.3978  28.5618  28.5831  28.7396  28.9289  28.9320
    28.9817  28.9997  29.0219  29.0459  29.3901  29.4432  29.5354  29.7120
    29.7730  29.8149

          k = 0.7397-0.1833 0.0000 ( 34396 PWs)   bands (ev):

   -18.0934 -18.0809 -17.7718 -17.7531 -14.0213 -13.9880 -13.9310 -13.9287
   -13.9073 -13.8996 -13.8974 -13.8915 -13.8723 -13.8694 -12.5976 -12.5641
   -11.7943 -11.5619 -11.4257 -11.3524 -11.3192 -11.2936 -11.1272 -11.0617
   -10.7451 -10.5492 -10.0370  -9.9962  -9.3898  -9.3608  -7.7651  -7.7008
    -7.3393  -7.2691  -6.2824  -6.1842  -5.7604  -5.6197  -4.9632  -4.9158
    -4.7430  -4.6857  -4.4072  -4.3025  -4.1353  -4.0304  -3.1644  -3.0501
    -3.0040  -2.9743  -2.8981  -2.8964  -2.8193  -2.5895  -2.4199  -2.4012
    -2.2349  -2.2136  -1.4184  -0.8788  -0.7411  -0.6094  -0.3087   0.2180
     0.2436   0.3877   0.5538   0.5640   0.5846   0.6403   0.6862   0.7116
     0.8171   0.8493   0.8527   1.0205   1.0362   1.0515   1.1649   1.1846
     1.2860   1.3696   5.9915   6.0392   6.1587   6.1920   6.6968   7.4290
     7.4843   7.5115   7.5353   7.6598   7.7004   8.0049   8.0940   8.4057
     8.5332   8.6116   8.6371   8.7762   8.9080   9.0084   9.0193   9.1689
     9.3093   9.3440   9.4260   9.4475   9.5956   9.6896   9.8123   9.8795
     9.9219  10.0994  10.1477  10.1624  10.2167  10.3609  10.6674  10.7861
    10.8117  11.1372  11.1771  11.2300  11.3816  11.3922  11.4352  11.4471
    11.5678  11.8665  11.8846  11.9439  11.9505  12.0194  12.1571  12.2707
    12.3239  12.4103  12.5552  12.7953  12.8793  12.8987  12.9529  13.0924
    13.2222  13.2534  13.2976  13.4322  13.4831  13.8921  13.9623  14.0166
    14.0406  14.3330  14.3428  14.4017  14.4269  14.4873  14.7137  14.8770
    14.9869  15.0510  15.1211  15.2549  15.2647  15.2838  15.3568  15.5742
    15.5794  15.6985  15.8688  15.9725  16.0252  16.1366  16.4047  16.4630
    16.5591  16.5978  16.6340  16.6622  16.9137  16.9408  17.1054  17.1543
    17.2690  17.2848  17.5968  17.6114  17.6216  17.9377  17.9500  18.0320
    18.0448  18.0515  18.2875  18.4464  18.4525  18.5238  18.5977  18.6876
    18.7032  18.7080  19.0418  19.2462  19.2807  19.3600  19.3743  19.4385
    19.6839  19.8116  19.8707  19.9608  20.0120  20.1247  20.1486  20.2062
    20.2321  20.3224  20.3424  20.4887  20.5397  20.6150  20.7191  20.9487
    21.0695  21.1178  21.3306  21.5027  21.5107  21.5742  21.6792  21.7411
    21.8874  21.8929  21.8971  22.0309  22.0770  22.1422  22.2943  22.3052
    22.4181  22.5387  22.6642  22.7557  22.7592  22.7740  22.8548  22.8781
    23.0230  23.1326  23.3871  23.3875  23.5202  23.6894  23.7208  23.7260
    23.7492  23.8526  23.9025  23.9677  24.1150  24.1507  24.2171  24.4337
    24.4341  24.4341  24.5392  24.6475  24.7529  24.9503  24.9996  25.0267
    25.0686  25.1902  25.2506  25.2831  25.3687  25.3927  25.5769  25.7570
    25.7750  25.7791  25.9022  26.0469  26.0473  26.2387  26.3685  26.4152
    26.4477  26.4586  26.6868  26.7583  26.8664  26.9503  27.1080  27.1354
    27.1483  27.1886  27.2754  27.3412  27.3589  27.6673  27.6730  27.7697
    27.8815  27.8848  28.0096  28.1006  28.1822  28.2706  28.3096  28.3405
    28.4576  28.5133  28.6330  28.6888  28.7841  28.9578  28.9593  28.9721
    29.0486  29.2375  29.2583  29.2790  29.3153  29.3215  29.4228  29.4760
    29.4929  29.7337

     Writing all to output data dir ./scf1.save/
 
     init_run     :      0.42s CPU      0.48s WALL (       1 calls)
     electrons    :    261.97s CPU    264.38s WALL (       1 calls)

     Called by init_run:
     wfcinit      :      0.00s CPU      0.00s WALL (       1 calls)
     wfcinit:atom :      0.02s CPU      0.02s WALL (       9 calls)
     wfcinit:wfcr :      3.43s CPU      3.58s WALL (       9 calls)
     potinit      :      0.05s CPU      0.07s WALL (       1 calls)
     hinit0       :      0.24s CPU      0.27s WALL (       1 calls)

     Called by electrons:
     c_bands      :    261.97s CPU    264.38s WALL (       1 calls)
     v_of_rho     :      0.02s CPU      0.03s WALL (       1 calls)
     v_h          :      0.00s CPU      0.00s WALL (       1 calls)
     v_xc         :      0.02s CPU      0.03s WALL (       1 calls)

     Called by c_bands:
     init_us_2    :      0.03s CPU      0.03s WALL (       9 calls)
     init_us_2:cp :      0.03s CPU      0.03s WALL (       9 calls)
     cegterg      :    252.12s CPU    254.09s WALL (      36 calls)

     Called by sum_band:

     Called by *egterg:
     cdiaghg      :    116.32s CPU    116.70s WALL (     601 calls)
     cegterg:over :     24.03s CPU     24.56s WALL (     592 calls)
     cegterg:upda :     10.69s CPU     10.74s WALL (     592 calls)
     cegterg:last :     21.22s CPU     21.34s WALL (     278 calls)
     h_psi        :     77.53s CPU     78.51s WALL (     637 calls)
     g_psi        :      0.44s CPU      0.45s WALL (     592 calls)

     Called by h_psi:
     h_psi:calbec :      9.24s CPU      9.44s WALL (     637 calls)
     vloc_psi     :     59.43s CPU     60.12s WALL (     637 calls)
     add_vuspsi   :      8.13s CPU      8.20s WALL (     637 calls)

     General routines
     calbec       :      9.23s CPU      9.44s WALL (     637 calls)
     fft          :      0.01s CPU      0.04s WALL (      11 calls)
     fftw         :     52.23s CPU     52.81s WALL (  185546 calls)
     davcio       :      0.00s CPU      0.13s WALL (      18 calls)
 
     Parallel routines
 
     PWSCF        :   4m23.45s CPU   4m29.52s WALL

 
   This run was terminated on:  16: 1:22  30Aug2023            

=------------------------------------------------------------------------------=
   JOB DONE.
=------------------------------------------------------------------------------=
