
     Program PWSCF v.6.1 (svn rev. 13369) starts on 16Mar2023 at 10:31:20 

     This program is part of the open-source Quantum ESPRESSO suite
     for quantum simulation of materials; please cite
         "P. Giannozzi et al., J. Phys.:Condens. Matter 21 395502 (2009);
          URL http://www.quantum-espresso.org", 
     in publications or presentations arising from this work. More details at
     http://www.quantum-espresso.org/quote

     Parallel version (MPI), running on    56 processors
     R & G space division:  proc/nbgrp/npool/nimage =      56
     Waiting for input...
     Reading input from standard input
Warning: card &IONS ignored
Warning: card / ignored
Warning: card &CELL ignored
Warning: card PRESS_CONV_THR = 0.001 ignored
Warning: card / ignored

     Current dimensions of program PWSCF are:
     Max number of different atomic species (ntypx) = 10
     Max number of k-points (npk) =  40000
     Max angular momentum in pseudopotentials (lmaxx) =  3

     Subspace diagonalization in iterative solution of the eigenvalue problem:
     a serial algorithm will be used

 
     Parallelization info
     --------------------
     sticks:   dense  smooth     PW     G-vecs:    dense   smooth      PW
     Min         142     142     39                 4915     4915     715
     Max         143     143     40                 4918     4918     717
     Sum        7953    7953   2199               275313   275313   40073
 


     bravais-lattice index     =            0
     lattice parameter (alat)  =      20.4141  a.u.
     unit-cell volume          =    4384.1881 (a.u.)^3
     number of atoms/cell      =           50
     number of atomic types    =            5
     number of electrons       =       164.00
     number of Kohn-Sham states=           82
     kinetic-energy cutoff     =      60.0000  Ry
     charge density cutoff     =     240.0000  Ry
     convergence threshold     =      1.0E-10
     mixing beta               =       0.5000
     number of iterations used =            8  plain     mixing
     Exchange-correlation      = PBE ( 1  4  3  4 0 0)

     celldm(1)=  20.414083  celldm(2)=   0.000000  celldm(3)=   0.000000
     celldm(4)=   0.000000  celldm(5)=   0.000000  celldm(6)=   0.000000

     crystal axes: (cart. coord. in units of alat)
               a(1) = (   0.676213   0.681619   0.279521 )  
               a(2) = (   0.676213  -0.681619   0.279521 )  
               a(3) = (   0.676213  -0.681619  -0.279521 )  

     reciprocal axes: (cart. coord. in units 2 pi/alat)
               b(1) = (  0.739412  0.733548  0.000000 )  
               b(2) = (  0.000000 -0.733548  1.788774 )  
               b(3) = (  0.739412  0.000000 -1.788774 )  


     PseudoPot. # 1 for Pb read from file:
     /home/rkarkee/merced_home_backup/rkarkee/pseudo/Pb.upf
     MD5 check sum: 465799cf2c9ea2062203eb79f5a7a375
     Pseudo is Norm-conserving + core correction, Zval = 14.0
     Generated using ONCVPSP code by D. R. Hamann
     Using radial grid of 1678 points,  6 beta functions with: 
                l(1) =   0
                l(2) =   0
                l(3) =   1
                l(4) =   1
                l(5) =   2
                l(6) =   2

     PseudoPot. # 2 for Br read from file:
     /home/rkarkee/merced_home_backup/rkarkee/pseudo/Br.upf
     MD5 check sum: 68275ccec8d7d9019ef58dac33cdd12b
     Pseudo is Norm-conserving + core correction, Zval =  7.0
     Generated using ONCVPSP code by D. R. Hamann
     Using radial grid of 1098 points,  6 beta functions with: 
                l(1) =   0
                l(2) =   0
                l(3) =   1
                l(4) =   1
                l(5) =   2
                l(6) =   2

     PseudoPot. # 3 for C  read from file:
     /home/rkarkee/merced_home_backup/rkarkee/pseudo/C.upf
     MD5 check sum: 34a24e64c0a39f27c6c36b90a16ac686
     Pseudo is Norm-conserving + core correction, Zval =  4.0
     Generated using ONCVPSP code by D. R. Hamann
     Using radial grid of 1248 points,  4 beta functions with: 
                l(1) =   0
                l(2) =   0
                l(3) =   1
                l(4) =   1

     PseudoPot. # 4 for H  read from file:
     /home/rkarkee/merced_home_backup/rkarkee/pseudo/H.upf
     MD5 check sum: e96aa7e3e4a958db16958554ea960e2a
     Pseudo is Norm-conserving, Zval =  1.0
     Generated using ONCVPSP code by D. R. Hamann
     Using radial grid of 1166 points,  3 beta functions with: 
                l(1) =   0
                l(2) =   0
                l(3) =   1

     PseudoPot. # 5 for N  read from file:
     /home/rkarkee/merced_home_backup/rkarkee/pseudo/N.upf
     MD5 check sum: d34365f73bb0e2ee98afc20ec3e87676
     Pseudo is Norm-conserving + core correction, Zval =  5.0
     Generated using ONCVPSP code by D. R. Hamann
     Using radial grid of 1058 points,  4 beta functions with: 
                l(1) =   0
                l(2) =   0
                l(3) =   1
                l(4) =   1

     atomic species   valence    mass     pseudopotential
        Pb            14.00   207.20000     Pb( 1.00)
        Br             7.00    79.90000     Br( 1.00)
        C              4.00    12.01000     C ( 1.00)
        H              1.00     1.00800     H ( 1.00)
        N              5.00    14.01000     N ( 1.00)

      8 Sym. Ops., with inversion, found ( 4 have fractional translation)


                                    s                        frac. trans.

      isym =  1     identity                                     

 cryst.   s( 1) = (     1          0          0      )
                  (     0          1          0      )
                  (     0          0          1      )

 cart.    s( 1) = (  1.0000000  0.0000000  0.0000000 )
                  (  0.0000000  1.0000000  0.0000000 )
                  (  0.0000000  0.0000000  1.0000000 )


      isym =  2     180 deg rotation - cart. axis [0,0,1]        

 cryst.   s( 2) = (    -1          1         -1      )    f =( -0.0000000 )
                  (     0          0         -1      )       ( -0.5000000 )
                  (     0         -1          0      )       ( -0.4999999 )

 cart.    s( 2) = ( -1.0000000  0.0000000  0.0000000 )    f =( -0.6762126 )
                  (  0.0000000 -1.0000000  0.0000000 )       (  0.6816189 )
                  (  0.0000000  0.0000000  1.0000000 )       ( -0.0000000 )


      isym =  3     180 deg rotation - cart. axis [0,1,0]        

 cryst.   s( 3) = (     0         -1          0      )
                  (    -1          0          0      )
                  (    -1          1         -1      )

 cart.    s( 3) = ( -1.0000000  0.0000000  0.0000000 )
                  (  0.0000000  1.0000000  0.0000000 )
                  (  0.0000000  0.0000000 -1.0000000 )


      isym =  4     180 deg rotation - cart. axis [1,0,0]        

 cryst.   s( 4) = (     0          0          1      )    f =( -0.0000001 )
                  (     1         -1          1      )       ( -0.4999999 )
                  (     1          0          0      )       ( -0.5000000 )

 cart.    s( 4) = (  1.0000000  0.0000000  0.0000000 )    f =( -0.6762126 )
                  (  0.0000000 -1.0000000  0.0000000 )       (  0.6816188 )
                  (  0.0000000  0.0000000 -1.0000000 )       ( -0.0000000 )


      isym =  5     inversion                                    

 cryst.   s( 5) = (    -1          0          0      )
                  (     0         -1          0      )
                  (     0          0         -1      )

 cart.    s( 5) = ( -1.0000000  0.0000000  0.0000000 )
                  (  0.0000000 -1.0000000  0.0000000 )
                  (  0.0000000  0.0000000 -1.0000000 )


      isym =  6     inv. 180 deg rotation - cart. axis [0,0,1]   

 cryst.   s( 6) = (     1         -1          1      )    f =(  0.0000000 )
                  (     0          0          1      )       (  0.5000000 )
                  (     0          1          0      )       ( -0.5000000 )

 cart.    s( 6) = (  1.0000000  0.0000000  0.0000000 )    f =(  0.0000000 )
                  (  0.0000000  1.0000000  0.0000000 )       (  0.0000000 )
                  (  0.0000000  0.0000000 -1.0000000 )       (  0.2795211 )


      isym =  7     inv. 180 deg rotation - cart. axis [0,1,0]   

 cryst.   s( 7) = (     0          1          0      )
                  (     1          0          0      )
                  (     1         -1          1      )

 cart.    s( 7) = (  1.0000000  0.0000000  0.0000000 )
                  (  0.0000000 -1.0000000  0.0000000 )
                  (  0.0000000  0.0000000  1.0000000 )


      isym =  8     inv. 180 deg rotation - cart. axis [1,0,0]   

 cryst.   s( 8) = (     0          0         -1      )    f =( -0.0000000 )
                  (    -1          1         -1      )       ( -0.5000000 )
                  (    -1          0          0      )       ( -0.4999999 )

 cart.    s( 8) = ( -1.0000000  0.0000000  0.0000000 )    f =( -0.6762126 )
                  (  0.0000000  1.0000000  0.0000000 )       (  0.6816189 )
                  (  0.0000000  0.0000000  1.0000000 )       ( -0.0000000 )


   Cartesian axes

     site n.     atom                  positions (alat units)
         1           Pb  tau(   1) = (   0.8317482  -0.6816189   0.1397606  )
         2           Pb  tau(   2) = (   1.1968897   0.0000000   0.1397605  )
         3           Br  tau(   3) = (   1.2149985  -0.2792916   0.1397605  )
         4           Br  tau(   4) = (   0.5387859  -0.4023273  -0.1397606  )
         5           Br  tau(   5) = (   0.8136394  -0.4023273   0.1397606  )
         6           Br  tau(   6) = (   1.4898521  -0.2792917   0.4192817  )
         7           Br  tau(   7) = (   1.2082928   0.0000000   0.4192817  )
         8           Br  tau(   8) = (   0.8203451  -0.6816189  -0.1397605  )
         9           Br  tau(   9) = (   1.1003979  -0.6816189   0.1397606  )
        10           Br  tau(  10) = (   0.9282401  -0.0000000   0.1397606  )
        11           C   tau(  11) = (   0.3676678   0.2769280   0.1397606  )
        12           C   tau(  12) = (   0.3676679  -0.2769280   0.1397606  )
        13           C   tau(  13) = (   1.6609701  -0.9585469   0.1397606  )
        14           C   tau(  14) = (   1.6609701  -0.4046909   0.1397606  )
        15           C   tau(  15) = (   1.4607254  -0.8481746   0.1397606  )
        16           C   tau(  16) = (   1.4607253  -0.5150633   0.1397605  )
        17           C   tau(  17) = (   0.5679126   0.1665556   0.1397606  )
        18           C   tau(  18) = (   0.5679126  -0.1665556   0.1397606  )
        19           H   tau(  19) = (   1.0105999  -0.2240787   0.3364777  )
        20           H   tau(  20) = (   1.6868126  -0.4575402   0.2225646  )
        21           H   tau(  21) = (   1.0180380  -0.4575403   0.3364777  )
        22           H   tau(  22) = (   1.0180381  -0.9056976  -0.0569565  )
        23           H   tau(  23) = (   1.0180380  -0.4575403  -0.0569565  )
        24           H   tau(  24) = (   0.3418254  -0.2240787   0.0569565  )
        25           H   tau(  25) = (   1.0105999  -0.2240786  -0.0569565  )
        26           H   tau(  26) = (   1.0106000   0.2240787   0.3364777  )
        27           H   tau(  27) = (   1.3606944  -0.8636512   0.1397606  )
        28           H   tau(  28) = (   1.3606944  -0.4995868   0.1397605  )
        29           H   tau(  29) = (   0.6679435   0.1820322   0.1397606  )
        30           H   tau(  30) = (   0.6679435  -0.1820322   0.1397606  )
        31           H   tau(  31) = (   1.4895790  -0.7978198   0.2229268  )
        32           H   tau(  32) = (   0.8133665   0.1162008   0.3361155  )
        33           H   tau(  33) = (   1.2152715  -0.5654182  -0.0565944  )
        34           H   tau(  34) = (   0.5390588  -0.1162009   0.0565944  )
        35           H   tau(  35) = (   0.5390589   0.1162008   0.0565944  )
        36           H   tau(  36) = (   1.2152715  -0.7978198  -0.0565944  )
        37           H   tau(  37) = (   0.8133664  -0.1162008   0.3361155  )
        38           H   tau(  38) = (   1.4895790  -0.5654181   0.2229267  )
        39           H   tau(  39) = (   0.5320732   0.3387958   0.2183495  )
        40           H   tau(  40) = (   0.5320732  -0.3387958   0.0611716  )
        41           H   tau(  41) = (   0.8203521  -0.3387958  -0.0611716  )
        42           H   tau(  42) = (   1.4965649  -0.3428231   0.0611716  )
        43           H   tau(  43) = (   1.4965649  -1.0204147   0.0611716  )
        44           H   tau(  44) = (   1.4965647  -0.3428231   0.2183496  )
        45           H   tau(  45) = (   1.2082858  -0.3428231   0.3406927  )
        46           H   tau(  46) = (   0.5320732  -0.3387958   0.2183495  )
        47           N   tau(  47) = (   1.5236660  -0.9707154   0.1397605  )
        48           N   tau(  48) = (   1.5236659  -0.3925223   0.1397606  )
        49           N   tau(  49) = (   0.5049720   0.2890966   0.1397606  )
        50           N   tau(  50) = (   0.5049720  -0.2890965   0.1397606  )

   Crystallographic axes

     site n.     atom                  positions (cryst. coord.)
         1           Pb  tau(   1) = (  0.1150049  0.7500000  0.3650049  )
         2           Pb  tau(   2) = (  0.8849951  0.2500000  0.6349951  )
         3           Br  tau(   3) = (  0.6935112  0.4548737  0.6483849  )
         4           Br  tau(   4) = (  0.1032586  0.0451263  0.6483849  )
         5           Br  tau(   5) = (  0.3064888  0.5451263  0.3516151  )
         6           Br  tau(   6) = (  0.8967413  0.9548738  0.3516150  )
         7           Br  tau(   7) = (  0.8934266  0.7500000  0.1434266  )
         8           Br  tau(   8) = (  0.1065734  0.2500000  0.8565733  )
         9           Br  tau(   9) = (  0.3136479  0.7500000  0.5636478  )
        10           Br  tau(  10) = (  0.6863522  0.2500000  0.4363522  )
        11           C   tau(  11) = (  0.4749980  0.0468601  0.0218582  )
        12           C   tau(  12) = (  0.0687183  0.4531399  0.0218582  )
        13           C   tau(  13) = (  0.5250020  0.9531399  0.9781418  )
        14           C   tau(  14) = (  0.9312818  0.5468601  0.9781418  )
        15           C   tau(  15) = (  0.4579019  0.8721766  0.8300784  )
        16           C   tau(  16) = (  0.7022548  0.6278235  0.8300784  )
        17           C   tau(  17) = (  0.5420981  0.1278235  0.1699216  )
        18           C   tau(  18) = (  0.2977452  0.3721765  0.1699216  )
        19           H   tau(  19) = (  0.5828777  0.7662548  0.1453677  )
        20           H   tau(  20) = (  0.9116226  0.7337453  0.8491324  )
        21           H   tau(  21) = (  0.4171223  0.9375100  0.1508675  )
        22           H   tau(  22) = (  0.0883776  0.5624900  0.8546323  )
        23           H   tau(  23) = (  0.4171222  0.2337453  0.8546322  )
        24           H   tau(  24) = (  0.0883775  0.2662547  0.1508675  )
        25           H   tau(  25) = (  0.5828777  0.0624900  0.8491324  )
        26           H   tau(  26) = (  0.9116226  0.4375100  0.1453677  )
        27           H   tau(  27) = (  0.3725849  0.8835293  0.7561143  )
        28           H   tau(  28) = (  0.6396436  0.6164707  0.7561143  )
        29           H   tau(  29) = (  0.6274150  0.1164707  0.2438857  )
        30           H   tau(  30) = (  0.3603564  0.3835293  0.2438857  )
        31           H   tau(  31) = (  0.5161743  0.9840044  0.7026476  )
        32           H   tau(  32) = (  0.6866521  0.5159957  0.0001787  )
        33           H   tau(  33) = (  0.4838256  0.3135266  0.9998213  )
        34           H   tau(  34) = (  0.3133479  0.1864734  0.2973522  )
        35           H   tau(  35) = (  0.4838256  0.0159957  0.2973523  )
        36           H   tau(  36) = (  0.3133479  0.4840043  0.9998213  )
        37           H   tau(  37) = (  0.5161743  0.6864734  0.0001786  )
        38           H   tau(  38) = (  0.6866520  0.8135266  0.7026477  )
        39           H   tau(  39) = (  0.6419444  0.1420550  0.0028436  )
        40           H   tau(  40) = (  0.1448986  0.3579450  0.2839994  )
        41           H   tau(  41) = (  0.3580556  0.1391008  0.7160005  )
        42           H   tau(  42) = (  0.8551015  0.3608991  0.9971565  )
        43           H   tau(  43) = (  0.3580558  0.8579450  0.9971565  )
        44           H   tau(  44) = (  0.8551014  0.6420550  0.7160006  )
        45           H   tau(  45) = (  0.6419444  0.8608992  0.2839994  )
        46           H   tau(  46) = (  0.1448986  0.6391008  0.0028436  )
        47           N   tau(  47) = (  0.4145514  0.9620660  0.8766175  )
        48           N   tau(  48) = (  0.8386836  0.5379338  0.8766175  )
        49           N   tau(  49) = (  0.5854486  0.0379339  0.1233825  )
        50           N   tau(  50) = (  0.1613164  0.4620661  0.1233825  )

     number of k points=     8
                       cart. coord. in units 2pi/alat
        k(    1) = (   0.2464708   0.0000000   0.0000000), wk =   0.1481481
        k(    2) = (  -0.2464708   0.0000000   1.1925157), wk =   0.2962963
        k(    3) = (  -0.0000000   0.0000000   0.5962579), wk =   0.1481481
        k(    4) = (   0.2464708   0.4890318  -1.1925157), wk =   0.5925926
        k(    5) = (  -0.2464708   0.4890318   0.0000000), wk =   0.2962963
        k(    6) = (  -0.0000000   0.4890318  -0.5962579), wk =   0.2962963
        k(    7) = (  -0.0000000   0.2445159   0.0000000), wk =   0.1481481
        k(    8) = (  -0.7394124   0.0000000   0.0000000), wk =   0.0740741

                       cryst. coord.
        k(    1) = (   0.1666667   0.1666667   0.1666667), wk =   0.1481481
        k(    2) = (   0.1666667   0.1666667  -0.5000000), wk =   0.2962963
        k(    3) = (   0.1666667   0.1666667  -0.1666667), wk =   0.1481481
        k(    4) = (   0.1666667  -0.5000000   0.1666667), wk =   0.5925926
        k(    5) = (   0.1666667  -0.5000000  -0.5000000), wk =   0.2962963
        k(    6) = (   0.1666667  -0.5000000  -0.1666667), wk =   0.2962963
        k(    7) = (   0.1666667  -0.1666667  -0.1666667), wk =   0.1481481
        k(    8) = (  -0.5000000  -0.5000000  -0.5000000), wk =   0.0740741

     Dense  grid:   275313 G-vectors     FFT dimensions: ( 108, 108, 108)

     Estimated max dynamical RAM per process >      21.56MB

     Estimated total allocated dynamical RAM >    1207.37MB

     Initial potential from superposition of free atoms

     starting charge  163.99489, renormalised to  164.00000
     Starting wfc are  126 randomized atomic wfcs

     total cpu time spent up to now is        3.0 secs

     per-process dynamical memory:    74.4 Mb

     Self-consistent Calculation

     iteration #  1     ecut=    60.00 Ry     beta=0.50
     Davidson diagonalization with overlap
     ethr =  1.00E-02,  avg # of iterations =  2.0

     total cpu time spent up to now is        4.5 secs

     total energy              =    -746.10560744 Ry
     Harris-Foulkes estimate   =    -747.59020600 Ry
     estimated scf accuracy    <       3.23925663 Ry

     iteration #  2     ecut=    60.00 Ry     beta=0.50
     Davidson diagonalization with overlap
     ethr =  1.98E-03,  avg # of iterations =  2.0

     total cpu time spent up to now is        6.0 secs

     total energy              =    -746.59399877 Ry
     Harris-Foulkes estimate   =    -746.69871193 Ry
     estimated scf accuracy    <       0.32144929 Ry

     iteration #  3     ecut=    60.00 Ry     beta=0.50
     Davidson diagonalization with overlap
     ethr =  1.96E-04,  avg # of iterations =  2.0

     total cpu time spent up to now is        7.5 secs

     total energy              =    -746.61404347 Ry
     Harris-Foulkes estimate   =    -746.63615979 Ry
     estimated scf accuracy    <       0.07426151 Ry

     iteration #  4     ecut=    60.00 Ry     beta=0.50
     Davidson diagonalization with overlap
     ethr =  4.53E-05,  avg # of iterations =  3.0

     total cpu time spent up to now is        9.0 secs

     total energy              =    -746.62033567 Ry
     Harris-Foulkes estimate   =    -746.62489198 Ry
     estimated scf accuracy    <       0.01210496 Ry

     iteration #  5     ecut=    60.00 Ry     beta=0.50
     Davidson diagonalization with overlap
     ethr =  7.38E-06,  avg # of iterations =  3.0

     total cpu time spent up to now is       10.6 secs

     total energy              =    -746.62281444 Ry
     Harris-Foulkes estimate   =    -746.62302735 Ry
     estimated scf accuracy    <       0.00071032 Ry

     iteration #  6     ecut=    60.00 Ry     beta=0.50
     Davidson diagonalization with overlap
     ethr =  4.33E-07,  avg # of iterations =  3.0

     total cpu time spent up to now is       12.3 secs

     total energy              =    -746.62296304 Ry
     Harris-Foulkes estimate   =    -746.62296940 Ry
     estimated scf accuracy    <       0.00009013 Ry

     iteration #  7     ecut=    60.00 Ry     beta=0.50
     Davidson diagonalization with overlap
     ethr =  5.50E-08,  avg # of iterations =  3.0

     total cpu time spent up to now is       14.0 secs

     total energy              =    -746.62298194 Ry
     Harris-Foulkes estimate   =    -746.62298371 Ry
     estimated scf accuracy    <       0.00001666 Ry

     iteration #  8     ecut=    60.00 Ry     beta=0.50
     Davidson diagonalization with overlap
     ethr =  1.02E-08,  avg # of iterations =  2.0

     total cpu time spent up to now is       15.5 secs

     total energy              =    -746.62298415 Ry
     Harris-Foulkes estimate   =    -746.62298415 Ry
     estimated scf accuracy    <       0.00000183 Ry

     iteration #  9     ecut=    60.00 Ry     beta=0.50
     Davidson diagonalization with overlap
     ethr =  1.12E-09,  avg # of iterations =  3.0

     total cpu time spent up to now is       17.3 secs

     total energy              =    -746.62298475 Ry
     Harris-Foulkes estimate   =    -746.62298484 Ry
     estimated scf accuracy    <       0.00000048 Ry

     iteration # 10     ecut=    60.00 Ry     beta=0.50
     Davidson diagonalization with overlap
     ethr =  2.94E-10,  avg # of iterations =  3.0

     total cpu time spent up to now is       18.8 secs

     total energy              =    -746.62298482 Ry
     Harris-Foulkes estimate   =    -746.62298482 Ry
     estimated scf accuracy    <       0.00000004 Ry

     iteration # 11     ecut=    60.00 Ry     beta=0.50
     Davidson diagonalization with overlap
     ethr =  2.43E-11,  avg # of iterations =  3.0

     total cpu time spent up to now is       20.7 secs

     total energy              =    -746.62298483 Ry
     Harris-Foulkes estimate   =    -746.62298483 Ry
     estimated scf accuracy    <          9.2E-09 Ry

     iteration # 12     ecut=    60.00 Ry     beta=0.50
     Davidson diagonalization with overlap
     ethr =  5.63E-12,  avg # of iterations =  2.0

     total cpu time spent up to now is       22.2 secs

     total energy              =    -746.62298483 Ry
     Harris-Foulkes estimate   =    -746.62298483 Ry
     estimated scf accuracy    <          5.9E-10 Ry

     iteration # 13     ecut=    60.00 Ry     beta=0.50
     Davidson diagonalization with overlap
     ethr =  3.57E-13,  avg # of iterations =  3.0

     total cpu time spent up to now is       24.0 secs

     End of self-consistent calculation

          k = 0.2465 0.0000 0.0000 ( 34376 PWs)   bands (ev):

   -18.0923 -18.0838 -17.7662 -17.7599 -14.0200 -13.9865 -13.9289 -13.9268
   -13.9056 -13.8980 -13.8958 -13.8897 -13.8701 -13.8672 -12.6024 -12.5630
   -11.7916 -11.5735 -11.4252 -11.3468 -11.3216 -11.3007 -11.0877 -11.0693
   -10.6726 -10.6560 -10.0757  -9.9452  -9.3835  -9.3671  -7.7441  -7.7249
    -7.3291  -7.2777  -6.2930  -6.1871  -5.7336  -5.6359  -4.8969  -4.8540
    -4.8045  -4.7299  -4.4965  -4.2435  -4.0812  -4.0758  -3.2448  -3.1002
    -2.9507  -2.9124  -2.8844  -2.8479  -2.8239  -2.6301  -2.4456  -2.3929
    -2.2711  -2.1906  -1.3631  -0.9226  -0.7322  -0.6548  -0.2621   0.2018
     0.3491   0.3658   0.4993   0.5083   0.5969   0.6147   0.6911   0.7155
     0.7432   0.8523   0.9737   1.0659   1.0760   1.0807   1.1280   1.1715
     1.2498   1.3379

     occupation numbers 
     1.0000   1.0000   1.0000   1.0000   1.0000   1.0000   1.0000   1.0000
     1.0000   1.0000   1.0000   1.0000   1.0000   1.0000   1.0000   1.0000
     1.0000   1.0000   1.0000   1.0000   1.0000   1.0000   1.0000   1.0000
     1.0000   1.0000   1.0000   1.0000   1.0000   1.0000   1.0000   1.0000
     1.0000   1.0000   1.0000   1.0000   1.0000   1.0000   1.0000   1.0000
     1.0000   1.0000   1.0000   1.0000   1.0000   1.0000   1.0000   1.0000
     1.0000   1.0000   1.0000   1.0000   1.0000   1.0000   1.0000   1.0000
     1.0000   1.0000   1.0000   1.0000   1.0000   1.0000   1.0000   1.0000
     1.0000   1.0000   1.0000   1.0000   1.0000   1.0000   1.0000   1.0000
     1.0000   1.0000   1.0000   1.0000   1.0000   1.0000   1.0000   1.0000
     1.0000   1.0000

          k =-0.2465 0.0000 1.1925 ( 34411 PWs)   bands (ev):

   -18.0861 -18.0843 -17.7636 -17.7572 -13.9740 -13.9559 -13.9310 -13.9303
   -13.9014 -13.8980 -13.8969 -13.8937 -13.8693 -13.8679 -12.5832 -12.5781
   -11.7342 -11.5944 -11.4376 -11.4045 -11.3868 -11.3633 -11.0888 -11.0590
   -10.7558 -10.6172 -10.1039 -10.0125  -9.4196  -9.4171  -7.6040  -7.5820
    -7.1843  -7.1733  -6.2720  -6.2644  -5.7528  -5.6150  -5.2925  -5.2173
    -4.9187  -4.7635  -4.4977  -4.2552  -4.1141  -4.0755  -3.1932  -3.1483
    -3.0184  -2.9724  -2.8833  -2.8258  -2.7614  -2.6264  -2.3960  -2.3397
    -2.1586  -2.1404  -0.5014  -0.4053  -0.2291  -0.2091   0.0032   0.0208
     0.1585   0.1900   0.3289   0.4067   0.6122   0.6385   0.6469   0.7406
     0.8169   0.8317   0.9152   1.0065   1.0355   1.0721   1.1401   1.1487
     1.5020   1.6445

     occupation numbers 
     1.0000   1.0000   1.0000   1.0000   1.0000   1.0000   1.0000   1.0000
     1.0000   1.0000   1.0000   1.0000   1.0000   1.0000   1.0000   1.0000
     1.0000   1.0000   1.0000   1.0000   1.0000   1.0000   1.0000   1.0000
     1.0000   1.0000   1.0000   1.0000   1.0000   1.0000   1.0000   1.0000
     1.0000   1.0000   1.0000   1.0000   1.0000   1.0000   1.0000   1.0000
     1.0000   1.0000   1.0000   1.0000   1.0000   1.0000   1.0000   1.0000
     1.0000   1.0000   1.0000   1.0000   1.0000   1.0000   1.0000   1.0000
     1.0000   1.0000   1.0000   1.0000   1.0000   1.0000   1.0000   1.0000
     1.0000   1.0000   1.0000   1.0000   1.0000   1.0000   1.0000   1.0000
     1.0000   1.0000   1.0000   1.0000   1.0000   1.0000   1.0000   1.0000
     1.0000   1.0000

          k =-0.0000 0.0000 0.5963 ( 34446 PWs)   bands (ev):

   -18.0894 -18.0810 -17.7636 -17.7573 -13.9739 -13.9560 -13.9310 -13.9303
   -13.9014 -13.8980 -13.8969 -13.8937 -13.8693 -13.8679 -12.6009 -12.5618
   -11.7326 -11.5977 -11.4222 -11.4003 -11.3887 -11.3778 -11.0734 -11.0679
   -10.7017 -10.6827 -10.1387  -9.9753  -9.4277  -9.4069  -7.6032  -7.5811
    -7.2026  -7.1555  -6.3304  -6.2177  -5.7281  -5.6314  -5.2751  -5.2159
    -4.8526  -4.8374  -4.5195  -4.2430  -4.1064  -4.0865  -3.2668  -3.0842
    -2.9945  -2.9745  -2.9019  -2.8507  -2.7143  -2.6372  -2.3952  -2.3458
    -2.1534  -2.1471  -0.5013  -0.4570  -0.2194  -0.1482   0.0403   0.1094
     0.1129   0.1603   0.3076   0.4431   0.5666   0.6455   0.6492   0.7343
     0.7645   0.7732   0.9152   0.9549   1.0250   1.1027   1.1742   1.1776
     1.5780   1.6144

     occupation numbers 
     1.0000   1.0000   1.0000   1.0000   1.0000   1.0000   1.0000   1.0000
     1.0000   1.0000   1.0000   1.0000   1.0000   1.0000   1.0000   1.0000
     1.0000   1.0000   1.0000   1.0000   1.0000   1.0000   1.0000   1.0000
     1.0000   1.0000   1.0000   1.0000   1.0000   1.0000   1.0000   1.0000
     1.0000   1.0000   1.0000   1.0000   1.0000   1.0000   1.0000   1.0000
     1.0000   1.0000   1.0000   1.0000   1.0000   1.0000   1.0000   1.0000
     1.0000   1.0000   1.0000   1.0000   1.0000   1.0000   1.0000   1.0000
     1.0000   1.0000   1.0000   1.0000   1.0000   1.0000   1.0000   1.0000
     1.0000   1.0000   1.0000   1.0000   1.0000   1.0000   1.0000   1.0000
     1.0000   1.0000   1.0000   1.0000   1.0000   1.0000   1.0000   1.0000
     1.0000   1.0000

          k = 0.2465 0.4890-1.1925 ( 34422 PWs)   bands (ev):

   -18.0873 -18.0831 -17.7620 -17.7588 -13.9740 -13.9560 -13.9310 -13.9303
   -13.9014 -13.8980 -13.8969 -13.8937 -13.8693 -13.8679 -12.5908 -12.5713
   -11.7334 -11.5962 -11.4337 -11.4031 -11.3862 -11.3682 -11.0735 -11.0691
   -10.6991 -10.6880 -10.0952 -10.0130  -9.4229  -9.4125  -7.5983  -7.5873
    -7.1908  -7.1674  -6.2996  -6.2437  -5.7058  -5.6574  -5.2798  -5.2221
    -4.8619  -4.8498  -4.4362  -4.3016  -4.0982  -4.0877  -3.2069  -3.1307
    -3.0073  -2.9784  -2.8937  -2.8561  -2.7134  -2.6426  -2.3782  -2.3534
    -2.1513  -2.1476  -0.5031  -0.4265  -0.2244  -0.1791   0.0173   0.0509
     0.1237   0.1769   0.3316   0.4278   0.5794   0.6308   0.6911   0.7281
     0.7583   0.8360   0.9132   0.9719   1.0185   1.0936   1.1332   1.1637
     1.5676   1.6464

     occupation numbers 
     1.0000   1.0000   1.0000   1.0000   1.0000   1.0000   1.0000   1.0000
     1.0000   1.0000   1.0000   1.0000   1.0000   1.0000   1.0000   1.0000
     1.0000   1.0000   1.0000   1.0000   1.0000   1.0000   1.0000   1.0000
     1.0000   1.0000   1.0000   1.0000   1.0000   1.0000   1.0000   1.0000
     1.0000   1.0000   1.0000   1.0000   1.0000   1.0000   1.0000   1.0000
     1.0000   1.0000   1.0000   1.0000   1.0000   1.0000   1.0000   1.0000
     1.0000   1.0000   1.0000   1.0000   1.0000   1.0000   1.0000   1.0000
     1.0000   1.0000   1.0000   1.0000   1.0000   1.0000   1.0000   1.0000
     1.0000   1.0000   1.0000   1.0000   1.0000   1.0000   1.0000   1.0000
     1.0000   1.0000   1.0000   1.0000   1.0000   1.0000   1.0000   1.0000
     1.0000   1.0000

          k =-0.2465 0.4890 0.0000 ( 34399 PWs)   bands (ev):

   -18.0911 -18.0851 -17.7679 -17.7583 -14.0201 -13.9865 -13.9289 -13.9268
   -13.9056 -13.8980 -13.8958 -13.8897 -13.8701 -13.8672 -12.5893 -12.5749
   -11.7955 -11.5678 -11.4263 -11.3523 -11.3184 -11.2967 -11.1009 -11.0696
   -10.7113 -10.6049 -10.0195 -10.0024  -9.3833  -9.3690  -7.7514  -7.7182
    -7.3193  -7.2864  -6.2602  -6.2171  -5.7326  -5.6445  -4.9224  -4.8974
    -4.7716  -4.7186  -4.3997  -4.3106  -4.1112  -4.0531  -3.1929  -3.0502
    -3.0074  -2.9671  -2.8833  -2.8641  -2.8210  -2.6052  -2.4218  -2.4089
    -2.2325  -2.2226  -1.3968  -0.8945  -0.7334  -0.6231  -0.2919   0.1779
     0.3024   0.3927   0.4993   0.5527   0.5795   0.6123   0.6477   0.7258
     0.8259   0.8335   0.9456   1.0111   1.0415   1.0685   1.1438   1.1664
     1.3211   1.3797

     occupation numbers 
     1.0000   1.0000   1.0000   1.0000   1.0000   1.0000   1.0000   1.0000
     1.0000   1.0000   1.0000   1.0000   1.0000   1.0000   1.0000   1.0000
     1.0000   1.0000   1.0000   1.0000   1.0000   1.0000   1.0000   1.0000
     1.0000   1.0000   1.0000   1.0000   1.0000   1.0000   1.0000   1.0000
     1.0000   1.0000   1.0000   1.0000   1.0000   1.0000   1.0000   1.0000
     1.0000   1.0000   1.0000   1.0000   1.0000   1.0000   1.0000   1.0000
     1.0000   1.0000   1.0000   1.0000   1.0000   1.0000   1.0000   1.0000
     1.0000   1.0000   1.0000   1.0000   1.0000   1.0000   1.0000   1.0000
     1.0000   1.0000   1.0000   1.0000   1.0000   1.0000   1.0000   1.0000
     1.0000   1.0000   1.0000   1.0000   1.0000   1.0000   1.0000   1.0000
     1.0000   1.0000

          k =-0.0000 0.4890-0.5963 ( 34418 PWs)   bands (ev):

   -18.0881 -18.0822 -17.7652 -17.7557 -13.9740 -13.9559 -13.9310 -13.9303
   -13.9014 -13.8980 -13.8969 -13.8937 -13.8693 -13.8679 -12.5879 -12.5735
   -11.7343 -11.5940 -11.4359 -11.4017 -11.3839 -11.3692 -11.0938 -11.0576
   -10.7508 -10.6247 -10.0603 -10.0523  -9.4246  -9.4117  -7.6092  -7.5761
    -7.1961  -7.1613  -6.2954  -6.2480  -5.7284  -5.6396  -5.2885  -5.2105
    -4.9255  -4.7796  -4.4148  -4.3170  -4.1227  -4.0756  -3.1909  -3.1696
    -3.0197  -2.9432  -2.9018  -2.8236  -2.6917  -2.6893  -2.3782  -2.3491
    -2.1604  -2.1384  -0.5025  -0.3916  -0.2439  -0.2049  -0.0123   0.0485
     0.1358   0.1898   0.3460   0.4086   0.5502   0.6332   0.6796   0.7430
     0.8356   0.8479   0.9049   0.9552   1.0140   1.1109   1.1301   1.1435
     1.5471   1.6551

     occupation numbers 
     1.0000   1.0000   1.0000   1.0000   1.0000   1.0000   1.0000   1.0000
     1.0000   1.0000   1.0000   1.0000   1.0000   1.0000   1.0000   1.0000
     1.0000   1.0000   1.0000   1.0000   1.0000   1.0000   1.0000   1.0000
     1.0000   1.0000   1.0000   1.0000   1.0000   1.0000   1.0000   1.0000
     1.0000   1.0000   1.0000   1.0000   1.0000   1.0000   1.0000   1.0000
     1.0000   1.0000   1.0000   1.0000   1.0000   1.0000   1.0000   1.0000
     1.0000   1.0000   1.0000   1.0000   1.0000   1.0000   1.0000   1.0000
     1.0000   1.0000   1.0000   1.0000   1.0000   1.0000   1.0000   1.0000
     1.0000   1.0000   1.0000   1.0000   1.0000   1.0000   1.0000   1.0000
     1.0000   1.0000   1.0000   1.0000   1.0000   1.0000   1.0000   1.0000
     1.0000   1.0000

          k =-0.0000 0.2445 0.0000 ( 34326 PWs)   bands (ev):

   -18.0951 -18.0807 -17.7711 -17.7551 -14.0200 -13.9865 -13.9289 -13.9268
   -13.9056 -13.8980 -13.8958 -13.8897 -13.8701 -13.8672 -12.6092 -12.5556
   -11.7916 -11.5718 -11.4270 -11.3482 -11.3189 -11.2973 -11.1051 -11.0577
   -10.7235 -10.5979 -10.0830  -9.9439  -9.3906  -9.3599  -7.7590  -7.7060
    -7.3477  -7.2626  -6.3132  -6.1643  -5.6899  -5.6801  -4.8972  -4.8934
    -4.7640  -4.7475  -4.4442  -4.2825  -4.1096  -4.0461  -3.2449  -3.0877
    -2.9803  -2.9218  -2.8784  -2.8377  -2.8149  -2.6325  -2.4408  -2.3883
    -2.2729  -2.1894  -1.3598  -0.9231  -0.7425  -0.6444  -0.2641   0.2252
     0.3215   0.3361   0.5463   0.5504   0.5810   0.5969   0.6585   0.6993
     0.7505   0.8776   0.9294   1.0320   1.0466   1.0844   1.1152   1.1797
     1.3325   1.3630

     occupation numbers 
     1.0000   1.0000   1.0000   1.0000   1.0000   1.0000   1.0000   1.0000
     1.0000   1.0000   1.0000   1.0000   1.0000   1.0000   1.0000   1.0000
     1.0000   1.0000   1.0000   1.0000   1.0000   1.0000   1.0000   1.0000
     1.0000   1.0000   1.0000   1.0000   1.0000   1.0000   1.0000   1.0000
     1.0000   1.0000   1.0000   1.0000   1.0000   1.0000   1.0000   1.0000
     1.0000   1.0000   1.0000   1.0000   1.0000   1.0000   1.0000   1.0000
     1.0000   1.0000   1.0000   1.0000   1.0000   1.0000   1.0000   1.0000
     1.0000   1.0000   1.0000   1.0000   1.0000   1.0000   1.0000   1.0000
     1.0000   1.0000   1.0000   1.0000   1.0000   1.0000   1.0000   1.0000
     1.0000   1.0000   1.0000   1.0000   1.0000   1.0000   1.0000   1.0000
     1.0000   1.0000

          k =-0.7394 0.0000 0.0000 ( 34414 PWs)   bands (ev):

   -18.0939 -18.0820 -17.7729 -17.7536 -14.0201 -13.9864 -13.9289 -13.9268
   -13.9056 -13.8980 -13.8958 -13.8897 -13.8701 -13.8672 -12.5953 -12.5669
   -11.8000 -11.5601 -11.4238 -11.3525 -11.3215 -11.2945 -11.1297 -11.0600
   -10.7495 -10.5363 -10.0268 -10.0112  -9.3914  -9.3628  -7.7669  -7.7001
    -7.3372  -7.2713  -6.2745  -6.1896  -5.7816  -5.6032  -4.9757  -4.9291
    -4.7359  -4.6560  -4.4491  -4.2713  -4.1413  -4.0271  -3.1404  -3.0672
    -2.9868  -2.9715  -2.9167  -2.9147  -2.8227  -2.5804  -2.4159  -2.4061
    -2.2255  -2.2197  -1.4383  -0.8651  -0.7456  -0.6095  -0.3182   0.2151
     0.2351   0.4111   0.5433   0.5705   0.5812   0.6460   0.6963   0.7766
     0.7801   0.7901   0.8993   1.0413   1.0457   1.0542   1.1775   1.1864
     1.2254   1.3563

     occupation numbers 
     1.0000   1.0000   1.0000   1.0000   1.0000   1.0000   1.0000   1.0000
     1.0000   1.0000   1.0000   1.0000   1.0000   1.0000   1.0000   1.0000
     1.0000   1.0000   1.0000   1.0000   1.0000   1.0000   1.0000   1.0000
     1.0000   1.0000   1.0000   1.0000   1.0000   1.0000   1.0000   1.0000
     1.0000   1.0000   1.0000   1.0000   1.0000   1.0000   1.0000   1.0000
     1.0000   1.0000   1.0000   1.0000   1.0000   1.0000   1.0000   1.0000
     1.0000   1.0000   1.0000   1.0000   1.0000   1.0000   1.0000   1.0000
     1.0000   1.0000   1.0000   1.0000   1.0000   1.0000   1.0000   1.0000
     1.0000   1.0000   1.0000   1.0000   1.0000   1.0000   1.0000   1.0000
     1.0000   1.0000   1.0000   1.0000   1.0000   1.0000   1.0000   1.0000
     1.0000   1.0000

     highest occupied level (ev):     1.6551

!    total energy              =    -746.62298483 Ry
     Harris-Foulkes estimate   =    -746.62298483 Ry
     estimated scf accuracy    <          5.4E-11 Ry

     The total energy is the sum of the following terms:

     one-electron contribution =    -325.05014071 Ry
     hartree contribution      =     223.23262452 Ry
     xc contribution           =    -241.75294946 Ry
     ewald contribution        =    -403.05251919 Ry

     convergence has been achieved in  13 iterations

     Forces acting on atoms (cartesian axes, Ry/au):

     atom    1 type  1   force =     0.00011897    0.00000000    0.00000000
     atom    2 type  1   force =    -0.00011897    0.00000000    0.00000000
     atom    3 type  2   force =     0.00000019   -0.00007009    0.00000000
     atom    4 type  2   force =     0.00000019    0.00007009    0.00000000
     atom    5 type  2   force =    -0.00000019    0.00007009    0.00000000
     atom    6 type  2   force =    -0.00000019   -0.00007009    0.00000000
     atom    7 type  2   force =    -0.00041114    0.00000000    0.00000000
     atom    8 type  2   force =     0.00041114    0.00000000    0.00000000
     atom    9 type  2   force =     0.00007102    0.00000000    0.00000000
     atom   10 type  2   force =    -0.00007102    0.00000000    0.00000000
     atom   11 type  3   force =    -0.00003538    0.00000604    0.00000000
     atom   12 type  3   force =    -0.00003538   -0.00000604   -0.00000000
     atom   13 type  3   force =     0.00003538   -0.00000604    0.00000000
     atom   14 type  3   force =     0.00003538    0.00000604   -0.00000000
     atom   15 type  3   force =    -0.00001314   -0.00003282    0.00000000
     atom   16 type  3   force =    -0.00001314    0.00003282    0.00000000
     atom   17 type  3   force =     0.00001314    0.00003282    0.00000000
     atom   18 type  3   force =     0.00001314   -0.00003282    0.00000000
     atom   19 type  4   force =    -0.00000975   -0.00001508   -0.00004683
     atom   20 type  4   force =    -0.00000975    0.00001508    0.00004683
     atom   21 type  4   force =     0.00000975    0.00001508   -0.00004683
     atom   22 type  4   force =     0.00000975   -0.00001508    0.00004683
     atom   23 type  4   force =     0.00000975    0.00001508    0.00004683
     atom   24 type  4   force =     0.00000975   -0.00001508   -0.00004683
     atom   25 type  4   force =    -0.00000975   -0.00001508    0.00004683
     atom   26 type  4   force =    -0.00000975    0.00001508   -0.00004683
     atom   27 type  4   force =    -0.00000144   -0.00000245    0.00000000
     atom   28 type  4   force =    -0.00000144    0.00000245    0.00000000
     atom   29 type  4   force =     0.00000144    0.00000245    0.00000000
     atom   30 type  4   force =     0.00000144   -0.00000245    0.00000000
     atom   31 type  4   force =     0.00000165    0.00000420    0.00001114
     atom   32 type  4   force =     0.00000165   -0.00000420   -0.00001114
     atom   33 type  4   force =    -0.00000165   -0.00000420    0.00001114
     atom   34 type  4   force =    -0.00000165    0.00000420   -0.00001114
     atom   35 type  4   force =    -0.00000165   -0.00000420   -0.00001114
     atom   36 type  4   force =    -0.00000165    0.00000420    0.00001114
     atom   37 type  4   force =     0.00000165    0.00000420   -0.00001114
     atom   38 type  4   force =     0.00000165   -0.00000420    0.00001114
     atom   39 type  4   force =     0.00000285   -0.00000276    0.00009281
     atom   40 type  4   force =     0.00000285    0.00000276   -0.00009281
     atom   41 type  4   force =    -0.00000285    0.00000276    0.00009281
     atom   42 type  4   force =    -0.00000285   -0.00000276   -0.00009281
     atom   43 type  4   force =    -0.00000285    0.00000276   -0.00009281
     atom   44 type  4   force =    -0.00000285   -0.00000276    0.00009281
     atom   45 type  4   force =     0.00000285   -0.00000276   -0.00009281
     atom   46 type  4   force =     0.00000285    0.00000276    0.00009281
     atom   47 type  5   force =    -0.00001894    0.00003999    0.00000000
     atom   48 type  5   force =    -0.00001894   -0.00003999    0.00000000
     atom   49 type  5   force =     0.00001894   -0.00003999    0.00000000
     atom   50 type  5   force =     0.00001894    0.00003999    0.00000000
     The non-local contrib.  to forces
     atom    1 type  1   force =     0.09809242    0.00000000   -0.00000000
     atom    2 type  1   force =    -0.09809242    0.00000000   -0.00000000
     atom    3 type  2   force =    -0.00130844    0.02786209    0.00000000
     atom    4 type  2   force =    -0.00130844   -0.02786209    0.00000000
     atom    5 type  2   force =     0.00130844   -0.02786209    0.00000000
     atom    6 type  2   force =     0.00130844    0.02786209    0.00000000
     atom    7 type  2   force =     0.03323607    0.00000000   -0.00000000
     atom    8 type  2   force =    -0.03323607    0.00000000   -0.00000000
     atom    9 type  2   force =    -0.07105864   -0.00000000    0.00000000
     atom   10 type  2   force =     0.07105864    0.00000000    0.00000000
     atom   11 type  3   force =     0.33838796    0.14839603    0.00000000
     atom   12 type  3   force =     0.33838796   -0.14839603    0.00000000
     atom   13 type  3   force =    -0.33838796   -0.14839603    0.00000000
     atom   14 type  3   force =    -0.33838796    0.14839603    0.00000000
     atom   15 type  3   force =     0.17419235   -0.36606322    0.00000000
     atom   16 type  3   force =     0.17419235    0.36606322    0.00000000
     atom   17 type  3   force =    -0.17419235    0.36606322    0.00000000
     atom   18 type  3   force =    -0.17419235   -0.36606322    0.00000000
     atom   19 type  4   force =    -0.03975909   -0.07887413    0.12095356
     atom   20 type  4   force =    -0.03975909    0.07887413   -0.12095356
     atom   21 type  4   force =     0.03975909    0.07887413    0.12095356
     atom   22 type  4   force =     0.03975909   -0.07887413   -0.12095356
     atom   23 type  4   force =     0.03975909    0.07887413   -0.12095356
     atom   24 type  4   force =     0.03975909   -0.07887413    0.12095356
     atom   25 type  4   force =    -0.03975909   -0.07887413   -0.12095356
     atom   26 type  4   force =    -0.03975909    0.07887413    0.12095356
     atom   27 type  4   force =     0.14776472    0.02030149    0.00000000
     atom   28 type  4   force =     0.14776472   -0.02030149    0.00000000
     atom   29 type  4   force =    -0.14776472   -0.02030149    0.00000000
     atom   30 type  4   force =    -0.14776472    0.02030149    0.00000000
     atom   31 type  4   force =    -0.04123159   -0.07603169   -0.12108348
     atom   32 type  4   force =    -0.04123159    0.07603169    0.12108348
     atom   33 type  4   force =     0.04123159    0.07603169   -0.12108348
     atom   34 type  4   force =     0.04123159   -0.07603169    0.12108348
     atom   35 type  4   force =     0.04123159    0.07603169    0.12108348
     atom   36 type  4   force =     0.04123159   -0.07603169   -0.12108348
     atom   37 type  4   force =    -0.04123159   -0.07603169    0.12108348
     atom   38 type  4   force =    -0.04123159    0.07603169   -0.12108348
     atom   39 type  4   force =    -0.05024623   -0.08979622   -0.14150688
     atom   40 type  4   force =    -0.05024623    0.08979622    0.14150688
     atom   41 type  4   force =     0.05024623    0.08979622   -0.14150688
     atom   42 type  4   force =     0.05024623   -0.08979622    0.14150688
     atom   43 type  4   force =     0.05024623    0.08979622    0.14150688
     atom   44 type  4   force =     0.05024623   -0.08979622   -0.14150688
     atom   45 type  4   force =    -0.05024623   -0.08979622    0.14150688
     atom   46 type  4   force =    -0.05024623    0.08979622   -0.14150688
     atom   47 type  5   force =     0.07259700    0.06750727    0.00000000
     atom   48 type  5   force =     0.07259700   -0.06750727    0.00000000
     atom   49 type  5   force =    -0.07259700   -0.06750727    0.00000000
     atom   50 type  5   force =    -0.07259700    0.06750727    0.00000000
     The ionic contribution  to forces
     atom    1 type  1   force =     2.30387244   -0.00001032    0.00000039
     atom    2 type  1   force =    -2.30386686   -0.00000124    0.00000190
     atom    3 type  2   force =    -0.31623483   -2.39545779    0.00000100
     atom    4 type  2   force =    -0.31623740    2.39545754    0.00000031
     atom    5 type  2   force =     0.31623690    2.39545816    0.00000016
     atom    6 type  2   force =     0.31623700   -2.39545087   -0.00000183
     atom    7 type  2   force =    -2.48097480   -0.00000066   -0.00000192
     atom    8 type  2   force =     2.48097652   -0.00000246   -0.00000074
     atom    9 type  2   force =     4.40782272   -0.00000217   -0.00000007
     atom   10 type  2   force =    -4.40782895    0.00000235    0.00000021
     atom   11 type  3   force =    -1.88328239   -2.80535624    0.00000084
     atom   12 type  3   force =    -1.88328213    2.80535930   -0.00000072
     atom   13 type  3   force =     1.88328380    2.80535110    0.00000339
     atom   14 type  3   force =     1.88327376   -2.80536091    0.00000287
     atom   15 type  3   force =    -2.73917788    4.63053426    0.00000180
     atom   16 type  3   force =    -2.73916440   -4.63051577   -0.00000265
     atom   17 type  3   force =     2.73916789   -4.63051913    0.00000076
     atom   18 type  3   force =     2.73916887    4.63052150   -0.00000096
     atom   19 type  4   force =     0.58477758    1.50371030   -1.91945370
     atom   20 type  4   force =     0.58477476   -1.50370808    1.91944987
     atom   21 type  4   force =    -0.58477552   -1.50370968   -1.91945144
     atom   22 type  4   force =    -0.58477524    1.50370930    1.91945129
     atom   23 type  4   force =    -0.58477563   -1.50370856    1.91945019
     atom   24 type  4   force =    -0.58477609    1.50370987   -1.91945143
     atom   25 type  4   force =     0.58477560    1.50370890    1.91945164
     atom   26 type  4   force =     0.58477571   -1.50370893   -1.91944937
     atom   27 type  4   force =    -2.22179930    0.38143628   -0.00000050
     atom   28 type  4   force =    -2.22180089   -0.38143482    0.00000009
     atom   29 type  4   force =     2.22180161   -0.38143486    0.00000012
     atom   30 type  4   force =     2.22180344    0.38143519   -0.00000021
     atom   31 type  4   force =     0.16592368    1.55804807    1.73132556
     atom   32 type  4   force =     0.16592728   -1.55804523   -1.73132262
     atom   33 type  4   force =    -0.16592576   -1.55804637    1.73132369
     atom   34 type  4   force =    -0.16592697    1.55804625   -1.73132479
     atom   35 type  4   force =    -0.16592549   -1.55804658   -1.73132492
     atom   36 type  4   force =    -0.16592721    1.55804699    1.73132627
     atom   37 type  4   force =     0.16592404    1.55804827   -1.73132518
     atom   38 type  4   force =     0.16592561   -1.55804574    1.73132433
     atom   39 type  4   force =     1.06348482    1.35947348    2.15059431
     atom   40 type  4   force =     1.06348398   -1.35947392   -2.15059425
     atom   41 type  4   force =    -1.06348240   -1.35947281    2.15058954
     atom   42 type  4   force =    -1.06348180    1.35947500   -2.15059718
     atom   43 type  4   force =    -1.06348233   -1.35947847   -2.15059818
     atom   44 type  4   force =    -1.06348464    1.35947357    2.15059489
     atom   45 type  4   force =     1.06348484    1.35947382   -2.15059392
     atom   46 type  4   force =     1.06348471   -1.35947400    2.15059458
     atom   47 type  5   force =    -2.56451877   -0.77030178    0.00000447
     atom   48 type  5   force =    -2.56452766    0.77028720    0.00000277
     atom   49 type  5   force =     2.56452429    0.77029159   -0.00000016
     atom   50 type  5   force =     2.56452348   -0.77029090   -0.00000049
     The local contribution  to forces
     atom    1 type  1   force =    -2.39853306   -0.00003816    0.00000326
     atom    2 type  1   force =     2.39855891    0.00002212    0.00002059
     atom    3 type  2   force =     0.31742547    2.36960058    0.00000328
     atom    4 type  2   force =     0.31741963   -2.36959565    0.00000302
     atom    5 type  2   force =    -0.31742657   -2.36959684    0.00000206
     atom    6 type  2   force =    -0.31742764    2.36960892   -0.00000026
     atom    7 type  2   force =     2.44971592   -0.00000573    0.00000220
     atom    8 type  2   force =    -2.44971914   -0.00000528    0.00000170
     atom    9 type  2   force =    -4.34174488   -0.00000122   -0.00000119
     atom   10 type  2   force =     4.34174182    0.00000389   -0.00000060
     atom   11 type  3   force =     1.56013907    2.66514300    0.00000104
     atom   12 type  3   force =     1.56013442   -2.66513453    0.00000537
     atom   13 type  3   force =    -1.56013788   -2.66514274   -0.00000021
     atom   14 type  3   force =    -1.56013617    2.66513569   -0.00000191
     atom   15 type  3   force =     2.57279390   -4.28119677   -0.00000323
     atom   16 type  3   force =     2.57280466    4.28120532    0.00000776
     atom   17 type  3   force =    -2.57280199    4.28120573    0.00000104
     atom   18 type  3   force =    -2.57281065   -4.28119851    0.00000276
     atom   19 type  4   force =    -0.54502716   -1.42485107    1.79845023
     atom   20 type  4   force =    -0.54502842    1.42484957   -1.79845161
     atom   21 type  4   force =     0.54502518    1.42485262    1.79845045
     atom   22 type  4   force =     0.54502436   -1.42485143   -1.79845232
     atom   23 type  4   force =     0.54502758    1.42485089   -1.79845004
     atom   24 type  4   force =     0.54502563   -1.42484912    1.79845167
     atom   25 type  4   force =    -0.54502474   -1.42485125   -1.79845078
     atom   26 type  4   force =    -0.54502928    1.42484937    1.79844932
     atom   27 type  4   force =     2.07403525   -0.40173684    0.00000055
     atom   28 type  4   force =     2.07403569    0.40174014    0.00000132
     atom   29 type  4   force =    -2.07403454    0.40174050    0.00000002
     atom   30 type  4   force =    -2.07403436   -0.40173999    0.00000114
     atom   31 type  4   force =    -0.12469029   -1.48200942   -1.61023182
     atom   32 type  4   force =    -0.12469580    1.48201156    1.61022887
     atom   33 type  4   force =     0.12469230    1.48201278   -1.61022810
     atom   34 type  4   force =     0.12469307   -1.48200882    1.61023130
     atom   35 type  4   force =     0.12469144    1.48201221    1.61022910
     atom   36 type  4   force =     0.12469241   -1.48200876   -1.61023116
     atom   37 type  4   force =    -0.12469249   -1.48201060    1.61023051
     atom   38 type  4   force =    -0.12469055    1.48201267   -1.61022894
     atom   39 type  4   force =    -1.01323681   -1.26967983   -2.00899515
     atom   40 type  4   force =    -1.01323569    1.26968073    2.00899337
     atom   41 type  4   force =     1.01323717    1.26968031   -2.00899366
     atom   42 type  4   force =     1.01322929   -1.26968260    2.00899529
     atom   43 type  4   force =     1.01322981    1.26968039    2.00899779
     atom   44 type  4   force =     1.01323697   -1.26968179   -2.00899333
     atom   45 type  4   force =    -1.01323618   -1.26967949    2.00899490
     atom   46 type  4   force =    -1.01323736    1.26968077   -2.00899384
     atom   47 type  5   force =     2.49658484    0.70992323    0.00001645
     atom   48 type  5   force =     2.49659208   -0.70998043    0.00000485
     atom   49 type  5   force =    -2.49657921   -0.70994853    0.00000254
     atom   50 type  5   force =    -2.49658544    0.70995896    0.00000343
     The core correction contribution to forces
     atom    1 type  1   force =    -0.00328961   -0.00000183    0.00000008
     atom    2 type  1   force =     0.00329102    0.00000129    0.00000099
     atom    3 type  2   force =     0.00011843   -0.00207748   -0.00000020
     atom    4 type  2   force =     0.00011888    0.00207713   -0.00000013
     atom    5 type  2   force =    -0.00011885    0.00207710   -0.00000006
     atom    6 type  2   force =    -0.00011882   -0.00207828    0.00000024
     atom    7 type  2   force =    -0.00239026    0.00000007    0.00000013
     atom    8 type  2   force =     0.00238974    0.00000003    0.00000022
     atom    9 type  2   force =     0.00504495    0.00000015   -0.00000004
     atom   10 type  2   force =    -0.00504418   -0.00000032   -0.00000009
     atom   11 type  3   force =    -0.01527979   -0.00816999   -0.00000006
     atom   12 type  3   force =    -0.01527976    0.00816977   -0.00000007
     atom   13 type  3   force =     0.01527980    0.00816990   -0.00000002
     atom   14 type  3   force =     0.01527974   -0.00816970    0.00000012
     atom   15 type  3   force =    -0.00783757    0.01670941    0.00000011
     atom   16 type  3   force =    -0.00783785   -0.01670955   -0.00000017
     atom   17 type  3   force =     0.00783769   -0.01670968   -0.00000001
     atom   18 type  3   force =     0.00783795    0.01670948   -0.00000003
     atom   19 type  4   force =     0.00000000    0.00000000    0.00000000
     atom   20 type  4   force =     0.00000000    0.00000000    0.00000000
     atom   21 type  4   force =     0.00000000    0.00000000    0.00000000
     atom   22 type  4   force =     0.00000000    0.00000000    0.00000000
     atom   23 type  4   force =     0.00000000    0.00000000    0.00000000
     atom   24 type  4   force =     0.00000000    0.00000000    0.00000000
     atom   25 type  4   force =     0.00000000    0.00000000    0.00000000
     atom   26 type  4   force =     0.00000000    0.00000000    0.00000000
     atom   27 type  4   force =     0.00000000    0.00000000    0.00000000
     atom   28 type  4   force =     0.00000000    0.00000000    0.00000000
     atom   29 type  4   force =     0.00000000    0.00000000    0.00000000
     atom   30 type  4   force =     0.00000000    0.00000000    0.00000000
     atom   31 type  4   force =     0.00000000    0.00000000    0.00000000
     atom   32 type  4   force =     0.00000000    0.00000000    0.00000000
     atom   33 type  4   force =     0.00000000    0.00000000    0.00000000
     atom   34 type  4   force =     0.00000000    0.00000000    0.00000000
     atom   35 type  4   force =     0.00000000    0.00000000    0.00000000
     atom   36 type  4   force =     0.00000000    0.00000000    0.00000000
     atom   37 type  4   force =     0.00000000    0.00000000    0.00000000
     atom   38 type  4   force =     0.00000000    0.00000000    0.00000000
     atom   39 type  4   force =     0.00000000    0.00000000    0.00000000
     atom   40 type  4   force =     0.00000000    0.00000000    0.00000000
     atom   41 type  4   force =     0.00000000    0.00000000    0.00000000
     atom   42 type  4   force =     0.00000000    0.00000000    0.00000000
     atom   43 type  4   force =     0.00000000    0.00000000    0.00000000
     atom   44 type  4   force =     0.00000000    0.00000000    0.00000000
     atom   45 type  4   force =     0.00000000    0.00000000    0.00000000
     atom   46 type  4   force =     0.00000000    0.00000000    0.00000000
     atom   47 type  5   force =    -0.00467373   -0.00712790   -0.00000052
     atom   48 type  5   force =    -0.00467397    0.00712976   -0.00000008
     atom   49 type  5   force =     0.00467349    0.00712874   -0.00000005
     atom   50 type  5   force =     0.00467366   -0.00712915   -0.00000003
     The Hubbard contrib.    to forces
     atom    1 type  1   force =     0.00000000    0.00000000    0.00000000
     atom    2 type  1   force =     0.00000000    0.00000000    0.00000000
     atom    3 type  2   force =     0.00000000    0.00000000    0.00000000
     atom    4 type  2   force =     0.00000000    0.00000000    0.00000000
     atom    5 type  2   force =     0.00000000    0.00000000    0.00000000
     atom    6 type  2   force =     0.00000000    0.00000000    0.00000000
     atom    7 type  2   force =     0.00000000    0.00000000    0.00000000
     atom    8 type  2   force =     0.00000000    0.00000000    0.00000000
     atom    9 type  2   force =     0.00000000    0.00000000    0.00000000
     atom   10 type  2   force =     0.00000000    0.00000000    0.00000000
     atom   11 type  3   force =     0.00000000    0.00000000    0.00000000
     atom   12 type  3   force =     0.00000000    0.00000000    0.00000000
     atom   13 type  3   force =     0.00000000    0.00000000    0.00000000
     atom   14 type  3   force =     0.00000000    0.00000000    0.00000000
     atom   15 type  3   force =     0.00000000    0.00000000    0.00000000
     atom   16 type  3   force =     0.00000000    0.00000000    0.00000000
     atom   17 type  3   force =     0.00000000    0.00000000    0.00000000
     atom   18 type  3   force =     0.00000000    0.00000000    0.00000000
     atom   19 type  4   force =     0.00000000    0.00000000    0.00000000
     atom   20 type  4   force =     0.00000000    0.00000000    0.00000000
     atom   21 type  4   force =     0.00000000    0.00000000    0.00000000
     atom   22 type  4   force =     0.00000000    0.00000000    0.00000000
     atom   23 type  4   force =     0.00000000    0.00000000    0.00000000
     atom   24 type  4   force =     0.00000000    0.00000000    0.00000000
     atom   25 type  4   force =     0.00000000    0.00000000    0.00000000
     atom   26 type  4   force =     0.00000000    0.00000000    0.00000000
     atom   27 type  4   force =     0.00000000    0.00000000    0.00000000
     atom   28 type  4   force =     0.00000000    0.00000000    0.00000000
     atom   29 type  4   force =     0.00000000    0.00000000    0.00000000
     atom   30 type  4   force =     0.00000000    0.00000000    0.00000000
     atom   31 type  4   force =     0.00000000    0.00000000    0.00000000
     atom   32 type  4   force =     0.00000000    0.00000000    0.00000000
     atom   33 type  4   force =     0.00000000    0.00000000    0.00000000
     atom   34 type  4   force =     0.00000000    0.00000000    0.00000000
     atom   35 type  4   force =     0.00000000    0.00000000    0.00000000
     atom   36 type  4   force =     0.00000000    0.00000000    0.00000000
     atom   37 type  4   force =     0.00000000    0.00000000    0.00000000
     atom   38 type  4   force =     0.00000000    0.00000000    0.00000000
     atom   39 type  4   force =     0.00000000    0.00000000    0.00000000
     atom   40 type  4   force =     0.00000000    0.00000000    0.00000000
     atom   41 type  4   force =     0.00000000    0.00000000    0.00000000
     atom   42 type  4   force =     0.00000000    0.00000000    0.00000000
     atom   43 type  4   force =     0.00000000    0.00000000    0.00000000
     atom   44 type  4   force =     0.00000000    0.00000000    0.00000000
     atom   45 type  4   force =     0.00000000    0.00000000    0.00000000
     atom   46 type  4   force =     0.00000000    0.00000000    0.00000000
     atom   47 type  5   force =     0.00000000    0.00000000    0.00000000
     atom   48 type  5   force =     0.00000000    0.00000000    0.00000000
     atom   49 type  5   force =     0.00000000    0.00000000    0.00000000
     atom   50 type  5   force =     0.00000000    0.00000000    0.00000000
     The SCF correction term to forces
     atom    1 type  1   force =    -0.00000681   -0.00000000    0.00000000
     atom    2 type  1   force =     0.00000681    0.00000000    0.00000000
     atom    3 type  2   force =     0.00000159    0.00000091    0.00000000
     atom    4 type  2   force =     0.00000159   -0.00000091    0.00000000
     atom    5 type  2   force =    -0.00000159   -0.00000091    0.00000000
     atom    6 type  2   force =    -0.00000159    0.00000091   -0.00000000
     atom    7 type  2   force =     0.00000092   -0.00000000   -0.00000000
     atom    8 type  2   force =    -0.00000092   -0.00000000   -0.00000000
     atom    9 type  2   force =     0.00000262   -0.00000000   -0.00000000
     atom   10 type  2   force =    -0.00000262    0.00000000   -0.00000000
     atom   11 type  3   force =     0.00000006   -0.00000226    0.00000000
     atom   12 type  3   force =     0.00000006    0.00000226    0.00000000
     atom   13 type  3   force =    -0.00000006    0.00000226    0.00000000
     atom   14 type  3   force =    -0.00000006   -0.00000226    0.00000000
     atom   15 type  3   force =    -0.00000076   -0.00000022   -0.00000000
     atom   16 type  3   force =    -0.00000076    0.00000022    0.00000000
     atom   17 type  3   force =     0.00000076    0.00000022    0.00000000
     atom   18 type  3   force =     0.00000076   -0.00000022    0.00000000
     atom   19 type  4   force =     0.00000012    0.00000051   -0.00000008
     atom   20 type  4   force =     0.00000012   -0.00000051    0.00000008
     atom   21 type  4   force =    -0.00000012   -0.00000051   -0.00000008
     atom   22 type  4   force =    -0.00000012    0.00000051    0.00000008
     atom   23 type  4   force =    -0.00000012   -0.00000051    0.00000008
     atom   24 type  4   force =    -0.00000012    0.00000051   -0.00000008
     atom   25 type  4   force =     0.00000012    0.00000051    0.00000008
     atom   26 type  4   force =     0.00000012   -0.00000051   -0.00000008
     atom   27 type  4   force =     0.00000019    0.00000015   -0.00000000
     atom   28 type  4   force =     0.00000019   -0.00000015    0.00000000
     atom   29 type  4   force =    -0.00000019   -0.00000015    0.00000000
     atom   30 type  4   force =    -0.00000019    0.00000015    0.00000000
     atom   31 type  4   force =    -0.00000023    0.00000006   -0.00000007
     atom   32 type  4   force =    -0.00000023   -0.00000006    0.00000007
     atom   33 type  4   force =     0.00000023   -0.00000006   -0.00000007
     atom   34 type  4   force =     0.00000023    0.00000006    0.00000007
     atom   35 type  4   force =     0.00000023   -0.00000006    0.00000007
     atom   36 type  4   force =     0.00000023    0.00000006   -0.00000007
     atom   37 type  4   force =    -0.00000023    0.00000006    0.00000007
     atom   38 type  4   force =    -0.00000023   -0.00000006   -0.00000007
     atom   39 type  4   force =     0.00000030   -0.00000018   -0.00000024
     atom   40 type  4   force =     0.00000030    0.00000018    0.00000024
     atom   41 type  4   force =    -0.00000030    0.00000018   -0.00000024
     atom   42 type  4   force =    -0.00000030   -0.00000018    0.00000024
     atom   43 type  4   force =    -0.00000030    0.00000018    0.00000024
     atom   44 type  4   force =    -0.00000030   -0.00000018   -0.00000024
     atom   45 type  4   force =     0.00000030   -0.00000018    0.00000024
     atom   46 type  4   force =     0.00000030    0.00000018   -0.00000024
     atom   47 type  5   force =    -0.00000407    0.00000169    0.00000000
     atom   48 type  5   force =    -0.00000407   -0.00000169    0.00000000
     atom   49 type  5   force =     0.00000407   -0.00000169    0.00000000
     atom   50 type  5   force =     0.00000407    0.00000169    0.00000000

     Total force =     0.000710     Total SCF correction =     0.000015


     Computing stress (Cartesian axis) and pressure

          total   stress  (Ry/bohr**3)                   (kbar)     P=    0.06
   0.00000062  -0.00000000   0.00000000          0.09     -0.00      0.00
  -0.00000000   0.00000035   0.00000000         -0.00      0.05      0.00
   0.00000000   0.00000000   0.00000029          0.00      0.00      0.04

     kinetic stress (kbar)   8158.63      0.00     -0.00
                                0.00   8184.04     -0.00
                               -0.00     -0.00   8158.50

     local   stress (kbar)  -5227.34     -0.00     -0.00
                               -0.00  -3204.20     -0.00
                               -0.00     -0.00  -3020.42

     nonloc. stress (kbar)   -348.40      0.00      0.00
                               -0.00   -359.47      0.00
                                0.00      0.00   -403.52

     hartree stress (kbar)   3092.43     -0.00     -0.00
                               -0.00   2230.06      0.00
                               -0.00      0.00   2167.76

     exc-cor stress (kbar)   1487.40     -0.00      0.00
                               -0.00   1487.29      0.00
                                0.00      0.00   1491.85

     corecor stress (kbar)  -3455.53      0.00     -0.00
                                0.00  -3456.32     -0.00
                               -0.00     -0.00  -3458.73

     ewald   stress (kbar)  -3707.10     -0.00      0.00
                               -0.00  -4881.34      0.00
                                0.00      0.00  -4935.40

     hubbard stress (kbar)      0.00      0.00      0.00
                                0.00      0.00      0.00
                                0.00      0.00      0.00

     london  stress (kbar)      0.00      0.00      0.00
                                0.00      0.00      0.00
                                0.00      0.00      0.00

     XDM     stress (kbar)      0.00      0.00      0.00
                                0.00      0.00      0.00
                                0.00      0.00      0.00

     dft-nl  stress (kbar)      0.00      0.00      0.00
                                0.00      0.00      0.00
                                0.00      0.00      0.00

     TS-vdW  stress (kbar)      0.00      0.00      0.00
                                0.00      0.00      0.00
                                0.00      0.00      0.00



     Writing output data file scf.save
 
     init_run     :      1.26s CPU      1.98s WALL (       1 calls)
     electrons    :     20.64s CPU     21.17s WALL (       1 calls)
     forces       :      0.67s CPU      0.67s WALL (       1 calls)
     stress       :      2.46s CPU      2.61s WALL (       1 calls)

     Called by init_run:
     wfcinit      :      0.68s CPU      1.12s WALL (       1 calls)
     wfcinit:atom :      0.01s CPU      0.01s WALL (       8 calls)
     wfcinit:wfcr :      0.64s CPU      1.07s WALL (       8 calls)
     potinit      :      0.21s CPU      0.24s WALL (       1 calls)

     Called by electrons:
     c_bands      :     18.54s CPU     18.85s WALL (      13 calls)
     sum_band     :      1.88s CPU      1.91s WALL (      13 calls)
     v_of_rho     :      0.14s CPU      0.14s WALL (      14 calls)
     v_h          :      0.01s CPU      0.01s WALL (      14 calls)
     v_xc         :      0.15s CPU      0.15s WALL (      16 calls)
     mix_rho      :      0.03s CPU      0.06s WALL (      13 calls)

     Called by c_bands:
     init_us_2    :      0.40s CPU      0.41s WALL (     232 calls)
     cegterg      :     17.34s CPU     17.63s WALL (     104 calls)

     Called by sum_band:

     Called by *egterg:
     h_psi        :     11.12s CPU     11.35s WALL (     384 calls)
     g_psi        :      0.03s CPU      0.03s WALL (     272 calls)
     cdiaghg      :      4.14s CPU      4.60s WALL (     376 calls)
     cegterg:over :      1.03s CPU      1.04s WALL (     272 calls)
     cegterg:upda :      0.44s CPU      0.44s WALL (     272 calls)
     cegterg:last :      0.17s CPU      0.17s WALL (     104 calls)

     Called by h_psi:
     h_psi:pot    :     11.00s CPU     11.23s WALL (     384 calls)
     h_psi:calbec :      1.27s CPU      1.36s WALL (     384 calls)
     vloc_psi     :      8.52s CPU      8.64s WALL (     384 calls)
     add_vuspsi   :      1.21s CPU      1.22s WALL (     384 calls)

     General routines
     calbec       :      1.79s CPU      1.96s WALL (     424 calls)
     fft          :      0.10s CPU      0.35s WALL (     178 calls)
     fftw         :      9.21s CPU      9.35s WALL (   56766 calls)
 
     Parallel routines
     fft_scatter  :      5.44s CPU      5.52s WALL (   56944 calls)
 
     PWSCF        :    26.85s CPU        30.97s WALL

 
   This run was terminated on:  10:31:51  16Mar2023            

=------------------------------------------------------------------------------=
   JOB DONE.
=------------------------------------------------------------------------------=
