
     Program PWSCF v.7.1 starts on 30Aug2023 at 15:59:28 

     This program is part of the open-source Quantum ESPRESSO suite
     for quantum simulation of materials; please cite
         "P. Giannozzi et al., J. Phys.:Condens. Matter 21 395502 (2009);
         "P. Giannozzi et al., J. Phys.:Condens. Matter 29 465901 (2017);
         "P. Giannozzi et al., J. Chem. Phys. 152 154105 (2020);
          URL http://www.quantum-espresso.org", 
     in publications or presentations arising from this work. More details at
     http://www.quantum-espresso.org/quote

     Parallel version (MPI), running on    56 processors

     MPI processes distributed on     1 nodes
     90026 MiB available memory on the printing compute node when the environment starts
 
     Waiting for input...
     Reading input from standard input
Warning: card &IONS ignored
Warning: card / ignored
Warning: card &CELL ignored
Warning: card PRESS_CONV_THR = 0.001 ignored
Warning: card / ignored

     Current dimensions of program PWSCF are:
     Max number of different atomic species (ntypx) = 10
     Max number of k-points (npk) =  40000
     Max angular momentum in pseudopotentials (lmaxx) =  4

     Atomic positions and unit cell read from directory:
     ./scf1.save/
     Atomic positions from file used, from input discarded
 
     Message from routine setup:
     using ibrav=0 with symmetry is DISCOURAGED, use correct ibrav instead
 
     K-points division:     npool     =       2
     R & G space division:  proc/nbgrp/npool/nimage =      28
     Subspace diagonalization in iterative solution of the eigenvalue problem:
     a serial algorithm will be used

 
     Parallelization info
     --------------------
     sticks:   dense  smooth     PW     G-vecs:    dense   smooth      PW
     Min         283     283     77                 9831     9831    1409
     Max         284     284     78                 9834     9834    1411
     Sum        7949    7949   2173               275321   275321   39479
 
     Using Slab Decomposition
 


     bravais-lattice index     =            0
     lattice parameter (alat)  =      20.4147  a.u.
     unit-cell volume          =    4384.1849 (a.u.)^3
     number of atoms/cell      =           50
     number of atomic types    =            5
     number of electrons       =       164.00
     number of Kohn-Sham states=          330
     kinetic-energy cutoff     =      60.0000  Ry
     charge density cutoff     =     240.0000  Ry
     Exchange-correlation= PBE
                           (   1   4   3   4   0   0   0)

     celldm(1)=  20.414728  celldm(2)=   0.000000  celldm(3)=   0.000000
     celldm(4)=   0.000000  celldm(5)=   0.000000  celldm(6)=   0.000000

     crystal axes: (cart. coord. in units of alat)
               a(1) = (   0.675983   0.681859   0.279491 )  
               a(2) = (   0.675983  -0.681859   0.279491 )  
               a(3) = (   0.675983  -0.681859  -0.279491 )  

     reciprocal axes: (cart. coord. in units 2 pi/alat)
               b(1) = (  0.739663  0.733289  0.000000 )  
               b(2) = (  0.000000 -0.733289  1.788967 )  
               b(3) = (  0.739663 -0.000000 -1.788967 )  


     PseudoPot. # 1 for Pb read from file:
     /home/rkarkee/merced_home_backup/rkarkee/pseudo/Pb.upf
     MD5 check sum: 465799cf2c9ea2062203eb79f5a7a375
     Pseudo is Norm-conserving + core correction, Zval = 14.0
     Generated using ONCVPSP code by D. R. Hamann
     Using radial grid of 1678 points,  6 beta functions with: 
                l(1) =   0
                l(2) =   0
                l(3) =   1
                l(4) =   1
                l(5) =   2
                l(6) =   2

     PseudoPot. # 2 for Br read from file:
     /home/rkarkee/merced_home_backup/rkarkee/pseudo/Br.upf
     MD5 check sum: 68275ccec8d7d9019ef58dac33cdd12b
     Pseudo is Norm-conserving + core correction, Zval =  7.0
     Generated using ONCVPSP code by D. R. Hamann
     Using radial grid of 1098 points,  6 beta functions with: 
                l(1) =   0
                l(2) =   0
                l(3) =   1
                l(4) =   1
                l(5) =   2
                l(6) =   2

     PseudoPot. # 3 for C  read from file:
     /home/rkarkee/merced_home_backup/rkarkee/pseudo/C.upf
     MD5 check sum: 34a24e64c0a39f27c6c36b90a16ac686
     Pseudo is Norm-conserving + core correction, Zval =  4.0
     Generated using ONCVPSP code by D. R. Hamann
     Using radial grid of 1248 points,  4 beta functions with: 
                l(1) =   0
                l(2) =   0
                l(3) =   1
                l(4) =   1

     PseudoPot. # 4 for H  read from file:
     /home/rkarkee/merced_home_backup/rkarkee/pseudo/H.upf
     MD5 check sum: e96aa7e3e4a958db16958554ea960e2a
     Pseudo is Norm-conserving, Zval =  1.0
     Generated using ONCVPSP code by D. R. Hamann
     Using radial grid of 1166 points,  3 beta functions with: 
                l(1) =   0
                l(2) =   0
                l(3) =   1

     PseudoPot. # 5 for N  read from file:
     /home/rkarkee/merced_home_backup/rkarkee/pseudo/N.upf
     MD5 check sum: d34365f73bb0e2ee98afc20ec3e87676
     Pseudo is Norm-conserving + core correction, Zval =  5.0
     Generated using ONCVPSP code by D. R. Hamann
     Using radial grid of 1058 points,  4 beta functions with: 
                l(1) =   0
                l(2) =   0
                l(3) =   1
                l(4) =   1

     atomic species   valence    mass     pseudopotential
        Pb            14.00   207.20000     Pb( 1.00)
        Br             7.00    79.90000     Br( 1.00)
        C              4.00    12.01000     C ( 1.00)
        H              1.00     1.00800     H ( 1.00)
        N              5.00    14.01000     N ( 1.00)

      8 Sym. Ops., with inversion, found ( 4 have fractional translation)


                                    s                        frac. trans.

      isym =  1     identity                                     

 cryst.   s( 1) = (     1          0          0      )
                  (     0          1          0      )
                  (     0          0          1      )

 cart.    s( 1) = (  1.0000000  0.0000000  0.0000000 )
                  (  0.0000000  1.0000000 -0.0000000 )
                  (  0.0000000 -0.0000000  1.0000000 )


      isym =  2     180 deg rotation - cart. axis [0,0,1]        

 cryst.   s( 2) = (    -1          1         -1      )    f =(  0.0000000 )
                  (     0          0         -1      )       ( -0.5000000 )
                  (     0         -1          0      )       ( -0.5000000 )

 cart.    s( 2) = ( -1.0000000  0.0000000 -0.0000001 )    f =( -0.6759831 )
                  ( -0.0000000 -1.0000000 -0.0000002 )       (  0.6818590 )
                  (  0.0000001 -0.0000000  1.0000000 )       (  0.0000000 )


      isym =  3     180 deg rotation - cart. axis [0,1,0]        

 cryst.   s( 3) = (     0         -1          0      )
                  (    -1          0          0      )
                  (    -1          1         -1      )

 cart.    s( 3) = ( -1.0000000  0.0000000  0.0000000 )
                  ( -0.0000001  1.0000000  0.0000002 )
                  ( -0.0000000  0.0000000 -1.0000000 )


      isym =  4     180 deg rotation - cart. axis [1,0,0]        

 cryst.   s( 4) = (     0          0          1      )    f =( -0.0000000 )
                  (     1         -1          1      )       ( -0.5000000 )
                  (     1          0          0      )       (  0.5000000 )

 cart.    s( 4) = (  1.0000000 -0.0000000  0.0000001 )    f =(  0.0000000 )
                  (  0.0000001 -1.0000000  0.0000000 )       (  0.0000000 )
                  ( -0.0000001  0.0000000 -1.0000000 )       ( -0.2794909 )


      isym =  5     inversion                                    

 cryst.   s( 5) = (    -1          0          0      )
                  (     0         -1          0      )
                  (     0          0         -1      )

 cart.    s( 5) = ( -1.0000000 -0.0000000 -0.0000000 )
                  ( -0.0000000 -1.0000000  0.0000000 )
                  ( -0.0000000  0.0000000 -1.0000000 )


      isym =  6     inv. 180 deg rotation - cart. axis [0,0,1]   

 cryst.   s( 6) = (     1         -1          1      )    f =(  0.0000000 )
                  (     0          0          1      )       ( -0.5000000 )
                  (     0          1          0      )       (  0.5000000 )

 cart.    s( 6) = (  1.0000000 -0.0000000  0.0000001 )    f =(  0.0000000 )
                  (  0.0000000  1.0000000  0.0000002 )       (  0.0000000 )
                  ( -0.0000001  0.0000000 -1.0000000 )       ( -0.2794909 )


      isym =  7     inv. 180 deg rotation - cart. axis [0,1,0]   

 cryst.   s( 7) = (     0          1          0      )
                  (     1          0          0      )
                  (     1         -1          1      )

 cart.    s( 7) = (  1.0000000 -0.0000000 -0.0000000 )
                  (  0.0000001 -1.0000000 -0.0000002 )
                  (  0.0000000 -0.0000000  1.0000000 )


      isym =  8     inv. 180 deg rotation - cart. axis [1,0,0]   

 cryst.   s( 8) = (     0          0         -1      )    f =(  0.0000000 )
                  (    -1          1         -1      )       ( -0.5000000 )
                  (    -1          0          0      )       ( -0.5000000 )

 cart.    s( 8) = ( -1.0000000  0.0000000 -0.0000001 )    f =( -0.6759831 )
                  ( -0.0000001  1.0000000 -0.0000000 )       (  0.6818590 )
                  (  0.0000001 -0.0000000  1.0000000 )       (  0.0000000 )


   Cartesian axes

     site n.     atom                  positions (alat units)
         1           Pb  tau(   1) = (   1.5075418  -0.6818590   0.1397454  )
         2           Pb  tau(   2) = (   0.5204074   0.0000000   0.1397454  )
         3           Br  tau(   3) = (   0.5385907   0.2793391   0.1397454  )
         4           Br  tau(   4) = (   0.5385907  -0.2793391   0.1397454  )
         5           Br  tau(   5) = (   1.4893586  -0.9611980   0.1397454  )
         6           Br  tau(   6) = (   1.4893586  -0.4025199   0.1397454  )
         7           Br  tau(   7) = (   1.2072256  -0.6818590   0.1397454  )
         8           Br  tau(   8) = (   0.8207237   0.0000000   0.1397454  )
         9           Br  tau(   9) = (   1.1001315   0.0000000   0.4192362  )
        10           Br  tau(  10) = (   0.9278178  -0.6818590  -0.1397455  )
        11           C   tau(  11) = (   1.0435272  -0.2770472   0.1397454  )
        12           C   tau(  12) = (   1.0435272   0.2770473   0.1397454  )
        13           C   tau(  13) = (   0.9844221  -0.4048118   0.1397454  )
        14           C   tau(  14) = (   0.9844220  -0.9589062   0.1397454  )
        15           C   tau(  15) = (   1.2437548  -0.1666552   0.1397454  )
        16           C   tau(  16) = (   0.5677717  -0.5152038  -0.1397455  )
        17           C   tau(  17) = (   0.7841945  -0.5152038   0.1397454  )
        18           C   tau(  18) = (   1.4601776  -0.1666552   0.4192362  )
        19           H   tau(  19) = (   1.0102673  -0.4576497   0.0569380  )
        20           H   tau(  20) = (   0.3342842  -0.2242093  -0.0569381  )
        21           H   tau(  21) = (   1.0176820  -0.2242093   0.0569380  )
        22           H   tau(  22) = (   1.0176820   0.2242093   0.2225527  )
        23           H   tau(  23) = (   1.0176819  -0.2242093   0.2225527  )
        24           H   tau(  24) = (   1.6936651  -0.4576497   0.3364289  )
        25           H   tau(  25) = (   1.0102673  -0.4576497   0.2225527  )
        26           H   tau(  26) = (   1.0102673  -0.9060683   0.0569380  )
        27           H   tau(  27) = (   1.3437843  -0.1821188   0.1397454  )
        28           H   tau(  28) = (   0.6678012  -0.4997402  -0.1397455  )
        29           H   tau(  29) = (   0.6841650  -0.4997402   0.1397454  )
        30           H   tau(  30) = (   1.3601482  -0.1821188   0.4192362  )
        31           H   tau(  31) = (   0.8130520  -0.5655596   0.2229066  )
        32           H   tau(  32) = (   0.8130520  -0.7981584   0.0565842  )
        33           H   tau(  33) = (   1.2148973  -0.1162994   0.2229066  )
        34           H   tau(  34) = (   1.2148973   0.1162994   0.0565842  )
        35           H   tau(  35) = (   1.2148973  -0.1162993   0.0565842  )
        36           H   tau(  36) = (   1.2148973   0.1162994   0.2229066  )
        37           H   tau(  37) = (   0.8130520  -0.5655596   0.0565842  )
        38           H   tau(  38) = (   0.8130520  -0.7981584   0.2229066  )
        39           H   tau(  39) = (   0.8200186  -0.3429687   0.0611483  )
        40           H   tau(  40) = (   0.8200186   0.3429687   0.2183425  )
        41           H   tau(  41) = (   1.2079308  -0.3388903   0.0611483  )
        42           H   tau(  42) = (   0.5319476  -0.3429687  -0.0611483  )
        43           H   tau(  43) = (   1.2079307  -0.3388903   0.2183425  )
        44           H   tau(  44) = (   1.2079307  -1.0248277   0.0611483  )
        45           H   tau(  45) = (   0.8200186  -0.3429687   0.2183425  )
        46           H   tau(  46) = (   1.4960016  -0.3388903   0.3406391  )
        47           N   tau(  47) = (   1.1808313  -0.2891989   0.1397454  )
        48           N   tau(  48) = (   0.5048482  -0.3926600  -0.1397454  )
        49           N   tau(  49) = (   0.8471180  -0.3926601   0.1397454  )
        50           N   tau(  50) = (   1.5231010  -0.2891989   0.4192362  )

   Crystallographic axes

     site n.     atom                  positions (cryst. coord.)
         1           Pb  tau(   1) = (  0.6150736  0.7500000  0.8650736  )
         2           Pb  tau(   2) = (  0.3849264  0.2500000  0.1349264  )
         3           Br  tau(   3) = (  0.6032122  0.0451636  0.1483758  )
         4           Br  tau(   4) = (  0.1935395  0.4548364  0.1483758  )
         5           Br  tau(   5) = (  0.3967878  0.9548364  0.8516241  )
         6           Br  tau(   6) = (  0.8064606  0.5451636  0.8516241  )
         7           Br  tau(   7) = (  0.3929407  0.7500000  0.6429407  )
         8           Br  tau(   8) = (  0.6070593  0.2500000  0.3570593  )
         9           Br  tau(   9) = (  0.8137271  0.7500000  0.0637271  )
        10           Br  tau(  10) = (  0.1862729  0.2500000  0.9362729  )
        11           C   tau(  11) = (  0.5687032  0.4531558  0.5218590  )
        12           C   tau(  12) = (  0.9750148  0.0468442  0.5218590  )
        13           C   tau(  13) = (  0.4312968  0.5468442  0.4781410  )
        14           C   tau(  14) = (  0.0249852  0.9531558  0.4781410  )
        15           C   tau(  15) = (  0.7977535  0.3722065  0.6699600  )
        16           C   tau(  16) = (  0.0421664  0.1277935  0.6699600  )
        17           C   tau(  17) = (  0.2022466  0.6277935  0.3300400  )
        18           C   tau(  18) = (  0.9578336  0.8722065  0.3300400  )
        19           H   tau(  19) = (  0.4116681  0.4374501  0.6453975  )
        20           H   tau(  20) = (  0.0828475  0.0625499  0.3491182  )
        21           H   tau(  21) = (  0.5883318  0.2662707  0.6508818  )
        22           H   tau(  22) = (  0.9171525  0.2337293  0.3546025  )
        23           H   tau(  23) = (  0.5883318  0.5625499  0.3546025  )
        24           H   tau(  24) = (  0.9171525  0.9374501  0.6508818  )
        25           H   tau(  25) = (  0.4116681  0.7337293  0.3491182  )
        26           H   tau(  26) = (  0.0828475  0.7662707  0.6453975  )
        27           H   tau(  27) = (  0.8604024  0.3835458  0.7439481  )
        28           H   tau(  28) = (  0.1274939  0.1164542  0.7439481  )
        29           H   tau(  29) = (  0.1395977  0.6164542  0.2560519  )
        30           H   tau(  30) = (  0.8725061  0.8835458  0.2560519  )
        31           H   tau(  31) = (  0.1866660  0.8134915  0.2026122  )
        32           H   tau(  32) = (  0.0161037  0.6865084  0.5001575  )
        33           H   tau(  33) = (  0.8133340  0.4840538  0.4998425  )
        34           H   tau(  34) = (  0.9838962  0.0159462  0.7973878  )
        35           H   tau(  35) = (  0.8133340  0.1865085  0.7973878  )
        36           H   tau(  36) = (  0.9838962  0.3134915  0.4998425  )
        37           H   tau(  37) = (  0.1866660  0.5159462  0.5001575  )
        38           H   tau(  38) = (  0.0161037  0.9840538  0.2026122  )
        39           H   tau(  39) = (  0.3550424  0.3608877  0.4971454  )
        40           H   tau(  40) = (  0.8580331  0.1391123  0.2159301  )
        41           H   tau(  41) = (  0.6449576  0.3578970  0.7840699  )
        42           H   tau(  42) = (  0.1419669  0.1421030  0.5028546  )
        43           H   tau(  43) = (  0.6449576  0.6391124  0.5028546  )
        44           H   tau(  44) = (  0.1419669  0.8608876  0.7840699  )
        45           H   tau(  45) = (  0.3550424  0.6421030  0.2159301  )
        46           H   tau(  46) = (  0.8580331  0.8578970  0.4971454  )
        47           N   tau(  47) = (  0.6613513  0.4620665  0.6234178  )
        48           N   tau(  48) = (  0.0854843  0.0379335  0.6234178  )
        49           N   tau(  49) = (  0.3386487  0.5379335  0.3765822  )
        50           N   tau(  50) = (  0.9145157  0.9620665  0.3765822  )

     number of k points=    18  Gaussian smearing, width (Ry)=  0.0001
                       cart. coord. in units 2pi/alat
        k(    1) = (   0.0000000   0.0000000   0.0000000), wk =   0.0312500
        k(    2) = (   0.1849158  -0.0000000  -0.4472418), wk =   0.1250000
        k(    3) = (   0.3698317  -0.0000000  -0.8944836), wk =   0.0625000
        k(    4) = (   0.0000000  -0.1833224   0.4472418), wk =   0.1250000
        k(    5) = (   0.1849159  -0.1833224  -0.0000000), wk =   0.1250000
        k(    6) = (   0.3698317  -0.1833224  -0.4472418), wk =   0.2500000
        k(    7) = (   0.5547476  -0.1833224  -0.8944836), wk =   0.2500000
        k(    8) = (   0.0000001  -0.3666447   0.8944836), wk =   0.0625000
        k(    9) = (   0.1849159  -0.3666447   0.4472418), wk =   0.2500000
        k(   10) = (   0.3698317  -0.3666447  -0.0000000), wk =   0.0625000
        k(   11) = (   0.3698317  -0.0000000   0.0000000), wk =   0.0625000
        k(   12) = (   0.5547476  -0.0000000  -0.4472418), wk =   0.1250000
        k(   13) = (   0.7396634  -0.0000000  -0.8944836), wk =   0.0625000
        k(   14) = (   0.5547476  -0.1833224   0.0000000), wk =   0.1250000
        k(   15) = (   0.7396634  -0.1833224  -0.4472418), wk =   0.1250000
        k(   16) = (   0.3698318  -0.3666447   0.8944836), wk =   0.0625000
        k(   17) = (   0.7396635  -0.3666447   0.0000000), wk =   0.0625000
        k(   18) = (   0.7396635  -0.0000000   0.0000001), wk =   0.0312500

                       cryst. coord.
        k(    1) = (   0.0000000   0.0000000   0.0000000), wk =   0.0312500
        k(    2) = (  -0.0000000  -0.0000000   0.2500000), wk =   0.1250000
        k(    3) = (  -0.0000000  -0.0000000   0.5000000), wk =   0.0625000
        k(    4) = (   0.0000000   0.2500000   0.0000000), wk =   0.1250000
        k(    5) = (   0.0000000   0.2500000   0.2500000), wk =   0.1250000
        k(    6) = (  -0.0000000   0.2500000   0.5000000), wk =   0.2500000
        k(    7) = (  -0.0000000   0.2500000   0.7500000), wk =   0.2500000
        k(    8) = (   0.0000000   0.5000000   0.0000000), wk =   0.0625000
        k(    9) = (  -0.0000000   0.5000000   0.2500000), wk =   0.2500000
        k(   10) = (   0.0000000   0.5000000   0.5000000), wk =   0.0625000
        k(   11) = (   0.2500000   0.2500000   0.2500000), wk =   0.0625000
        k(   12) = (   0.2500000   0.2500000   0.5000000), wk =   0.1250000
        k(   13) = (   0.2500000   0.2500000   0.7500000), wk =   0.0625000
        k(   14) = (   0.2500000   0.5000000   0.5000000), wk =   0.1250000
        k(   15) = (   0.2500000   0.5000000   0.7500000), wk =   0.1250000
        k(   16) = (   0.2500000   0.7500000   0.2500000), wk =   0.0625000
        k(   17) = (   0.2500000   0.7500000   0.7500000), wk =   0.0625000
        k(   18) = (   0.5000000   0.5000000   0.5000000), wk =   0.0312500

     Dense  grid:   275321 G-vectors     FFT dimensions: ( 108, 108, 108)

     Dynamical RAM for                 wfc:       6.18 MB

     Dynamical RAM for     wfc (w. buffer):       6.18 MB

     Dynamical RAM for           str. fact:       0.75 MB

     Dynamical RAM for           local pot:       0.00 MB

     Dynamical RAM for          nlocal pot:       7.79 MB

     Dynamical RAM for                qrad:       6.22 MB

     Dynamical RAM for          rho,v,vnew:       1.52 MB

     Dynamical RAM for           G-vectors:       0.64 MB

     Dynamical RAM for          h,s,v(r/c):      19.94 MB

     Dynamical RAM for          <psi|beta>:       2.09 MB

     Dynamical RAM for                 psi:      12.37 MB

     Dynamical RAM for                hpsi:      12.37 MB

     Dynamical RAM for      wfcinit/wfcrot:      14.86 MB

     Estimated static dynamical RAM per process >      25.78 MB

     Estimated max dynamical RAM per process >      72.55 MB

     Estimated total dynamical RAM >       3.97 GB

     The potential is recalculated from file :
     ./scf1.save/charge-density

     Starting wfcs are  126 randomized atomic wfcs +  204 random wfcs

     Band Structure Calculation
     Davidson diagonalization with overlap

     Computing kpt #:     1  of     9 on this pool
     total cpu time spent up to now is       30.2 secs

     Computing kpt #:     2  of     9 on this pool
     total cpu time spent up to now is       59.5 secs

     Computing kpt #:     3  of     9 on this pool
     total cpu time spent up to now is       89.5 secs

     Computing kpt #:     4  of     9 on this pool
     total cpu time spent up to now is      119.0 secs

     Computing kpt #:     5  of     9 on this pool
     total cpu time spent up to now is      150.3 secs

     Computing kpt #:     6  of     9 on this pool
     total cpu time spent up to now is      181.1 secs

     Computing kpt #:     7  of     9 on this pool
     total cpu time spent up to now is      211.5 secs

     Computing kpt #:     8  of     9 on this pool
     total cpu time spent up to now is      238.4 secs

     Computing kpt #:     9  of     9 on this pool
     total cpu time spent up to now is      269.1 secs

     ethr =  1.00E-13,  avg # of iterations = 68.1

     total cpu time spent up to now is      269.1 secs

     End of band structure calculation

          k = 0.0000 0.0000 0.0000 ( 34335 PWs)   bands (ev):

   -18.0948 -18.0795 -17.7697 -17.7550 -14.0212 -13.9881 -13.9311 -13.9287
   -13.9073 -13.8996 -13.8974 -13.8915 -13.8723 -13.8694 -12.6133 -12.5511
   -11.7849 -11.5754 -11.4257 -11.3443 -11.3214 -11.3002 -11.0985 -11.0589
   -10.7132 -10.6151 -10.1026  -9.9234  -9.3890  -9.3576  -7.7565  -7.7077
    -7.3513  -7.2593  -6.3236  -6.1534  -5.7169  -5.6460  -4.8921  -4.8541
    -4.7769  -4.7537  -4.5162  -4.2364  -4.0982  -4.0518  -3.2730  -3.1161
    -2.9443  -2.8944  -2.8796  -2.8194  -2.8184  -2.6545  -2.4495  -2.3846
    -2.2871  -2.1783  -1.3326  -0.9469  -0.7345  -0.6667  -0.2454   0.2356
     0.3275   0.4211   0.4572   0.5349   0.5620   0.5856   0.7055   0.7232
     0.7454   0.8833   0.9256   1.0730   1.0835   1.0948   1.0978   1.1760
     1.2409   1.3386   5.9185   5.9773   6.2161   6.2980   6.7550   7.0664
     7.3364   7.4834   7.6091   7.6120   8.1415   8.3022   8.4166   8.4281
     8.4575   8.5366   8.5671   8.7460   8.8103   9.0012   9.0799   9.1931
     9.2585   9.3144   9.3427   9.4598   9.5057   9.6714   9.7334   9.7678
     9.7779   9.8213   9.8994  10.3701  10.4236  10.5960  10.7173  10.8229
    11.0262  11.2096  11.2643  11.3289  11.3841  11.4217  11.5896  11.6811
    11.6952  11.7321  11.7652  11.9187  11.9194  11.9417  12.1648  12.3379
    12.3421  12.3564  12.5379  12.5820  12.6676  12.7371  12.7713  12.8384
    13.1240  13.1344  13.1862  13.5109  13.7677  13.7931  13.7981  14.0764
    14.1074  14.1199  14.1275  14.1605  14.2738  14.4110  14.6623  14.7274
    14.8241  14.8836  14.9122  14.9960  15.4041  15.4643  15.6258  15.7402
    15.8111  15.8331  15.9766  16.0699  16.1450  16.3527  16.3755  16.4977
    16.5084  16.7049  16.7767  16.8905  17.0080  17.0771  17.3459  17.3765
    17.5423  17.6166  17.6345  17.6501  17.7076  17.7872  18.1208  18.2558
    18.2944  18.3333  18.4160  18.5837  18.6134  18.6152  18.7712  18.8846
    18.9678  18.9984  19.1377  19.1895  19.2955  19.3631  19.4185  19.4596
    19.7597  19.8040  19.9203  19.9309  20.0011  20.0128  20.0452  20.1110
    20.1272  20.1712  20.2623  20.3900  20.3994  20.4436  20.7615  20.7719
    20.8596  20.8621  20.8672  21.0955  21.3500  21.3827  21.4209  21.4779
    21.5233  21.5929  21.6454  21.6482  22.0145  22.0405  22.1349  22.1685
    22.2208  22.2268  22.3848  22.4663  22.5678  22.5933  22.6949  22.7672
    22.9004  22.9155  23.0495  23.1400  23.2791  23.5671  23.7088  23.8011
    23.8231  23.8770  24.0297  24.0944  24.0979  24.2110  24.3191  24.5649
    24.6133  24.6270  24.6532  24.6608  24.7478  24.8348  24.8943  24.9253
    25.0165  25.1627  25.3821  25.3913  25.4233  25.5233  25.9160  25.9198
    26.0353  26.0725  26.1294  26.2286  26.3078  26.3185  26.4679  26.4704
    26.5754  26.6614  26.8363  26.9014  26.9337  26.9958  27.0110  27.2413
    27.3851  27.4043  27.4343  27.5694  27.6700  27.7219  27.8487  27.8740
    27.9178  28.0734  28.1038  28.1522  28.3005  28.3553  28.3688  28.4570
    28.6493  28.6926  28.7255  28.7376  28.8955  28.9347  29.0325  29.1046
    29.1218  29.1905  29.2313  29.2991  29.4566  29.5569  29.5843  29.7019
    29.9652  29.9768

          k = 0.1849-0.0000-0.4472 ( 34434 PWs)   bands (ev):

   -18.0896 -18.0811 -17.7637 -17.7573 -13.9919 -13.9675 -13.9319 -13.9307
   -13.9048 -13.8996 -13.8981 -13.8938 -13.8718 -13.8698 -12.6007 -12.5616
   -11.7554 -11.5813 -11.4275 -11.3783 -11.3674 -11.3493 -11.0820 -11.0708
   -10.6859 -10.6796 -10.1168  -9.9651  -9.4123  -9.3929  -7.6501  -7.6288
    -7.2442  -7.1957  -6.3153  -6.2054  -5.7292  -5.6322  -5.1664  -5.0916
    -4.8331  -4.8285  -4.5131  -4.2433  -4.0959  -4.0788  -3.2377  -3.0840
    -3.0099  -2.9906  -2.8616  -2.8518  -2.7478  -2.6287  -2.4133  -2.3607
    -2.1890  -2.1618  -0.5994  -0.5803  -0.5305  -0.1837  -0.1676   0.1077
     0.1513   0.2390   0.3575   0.4483   0.5673   0.6336   0.6481   0.7191
     0.7819   0.7822   0.9409   0.9683   1.0216   1.1114   1.1609   1.1780
     1.4295   1.5020   5.7168   5.7474   5.9116   6.0966   6.3871   6.4767
     7.0538   7.3374   7.5562   7.8136   8.1800   8.2463   8.4262   8.5212
     8.6478   8.6856   8.7432   8.8320   8.8514   8.9509   9.0666   9.1444
     9.2693   9.3107   9.3165   9.4303   9.5552   9.6964   9.7263   9.8407
     9.8432  10.0116  10.1388  10.2150  10.3283  10.3522  10.4141  10.8172
    10.8338  10.9189  10.9688  11.0501  11.1044  11.1101  11.3415  11.3446
    11.4695  11.6141  11.7572  11.7906  11.9351  11.9686  12.1040  12.2757
    12.3135  12.3500  12.4168  12.6266  12.7168  12.8259  12.8620  13.0156
    13.2803  13.2964  13.4004  13.6042  13.6110  13.6797  13.8371  14.0278
    14.0658  14.2780  14.3272  14.5116  14.6078  14.7426  14.8879  14.9841
    15.1815  15.1903  15.2749  15.3239  15.4563  15.4958  15.6850  15.7365
    15.7683  15.9441  16.0843  16.1410  16.1780  16.3482  16.4495  16.5555
    16.6546  16.6926  16.8184  16.8548  17.0047  17.0752  17.1601  17.2074
    17.2510  17.3990  17.6283  17.7259  17.8169  17.8976  17.9813  18.1087
    18.1536  18.1543  18.2581  18.3091  18.3951  18.4932  18.6534  18.6598
    18.7668  19.0045  19.1176  19.1643  19.2990  19.4043  19.4488  19.4651
    19.7215  19.7302  19.7531  19.8336  19.8929  19.9873  20.1105  20.3048
    20.4280  20.4724  20.5400  20.5630  20.6716  20.7592  20.7893  21.0159
    21.0894  21.2372  21.2888  21.3866  21.4771  21.5096  21.5827  21.7327
    21.7680  21.8587  21.9840  22.0297  22.1166  22.1657  22.2141  22.2621
    22.4158  22.4934  22.5173  22.6925  22.7529  22.8881  22.8925  22.9588
    23.0053  23.0840  23.2683  23.3296  23.3555  23.4273  23.5423  23.6659
    23.6707  23.7438  23.7979  23.8872  24.0417  24.1664  24.2049  24.2358
    24.4309  24.4434  24.4487  24.7524  24.8152  24.8508  24.9052  25.1282
    25.1548  25.2212  25.2877  25.4577  25.4978  25.6698  25.8526  25.8675
    25.9668  26.0417  26.1451  26.2425  26.3803  26.4363  26.5030  26.5348
    26.6311  26.7832  26.7928  26.8693  26.9287  27.0095  27.0630  27.1432
    27.1854  27.2064  27.3476  27.4153  27.4490  27.4686  27.6023  27.6514
    27.7541  27.8524  28.0022  28.1324  28.2007  28.3047  28.3916  28.4219
    28.5916  28.5939  28.6244  28.6623  28.7910  28.9118  29.0348  29.1065
    29.1108  29.2038  29.3581  29.3813  29.4859  29.6061  29.6728  29.7497
    29.7692  29.7939

          k = 0.3698-0.0000-0.8945 ( 34438 PWs)   bands (ev):

   -18.0842 -18.0826 -17.7598 -17.7576 -13.9514 -13.9513 -13.9355 -13.9354
   -13.8993 -13.8993 -13.8992 -13.8992 -13.8707 -13.8707 -12.5879 -12.5717
   -11.6585 -11.6536 -11.4387 -11.4357 -11.4020 -11.3839 -11.0778 -11.0591
   -10.7572 -10.6428 -10.1350 -10.0083  -9.4325  -9.4261  -7.5482  -7.5415
    -7.1427  -7.1356  -6.2994  -6.2588  -5.7405  -5.6182  -5.3722  -5.3529
    -4.9158  -4.8035  -4.5081  -4.2507  -4.1060  -4.0884  -3.2027  -3.1736
    -2.9727  -2.9627  -2.9384  -2.7971  -2.7878  -2.6013  -2.3800  -2.3255
    -2.1356  -2.1058  -0.2832  -0.2681  -0.2626  -0.2199  -0.0638   0.0829
     0.0972   0.2487   0.5107   0.5170   0.6384   0.6488   0.6504   0.7357
     0.8003   0.8303   0.9146   0.9961   1.0164   1.0693   1.1372   1.1581
     1.7939   1.8498   4.5917   4.6204   5.8734   5.9553   5.9576   5.9610
     7.3796   7.6345   7.8599   7.8879   8.2505   8.4183   8.4460   8.4610
     8.4811   8.5860   8.7497   8.9067   8.9251   9.0368   9.2161   9.2827
     9.2853   9.3177   9.4694   9.4805   9.5878   9.5883   9.7857   9.7913
     9.9330  10.0600  10.0906  10.1902  10.2543  10.4215  10.4935  10.5210
    10.6096  10.6675  10.8687  10.8732  11.0232  11.1152  11.2119  11.2163
    11.3680  11.4928  11.5226  11.5687  11.6671  11.6836  11.8517  12.1291
    12.2167  12.4681  12.5762  12.7946  12.8219  12.9485  13.1048  13.1672
    13.1678  13.1928  13.2203  13.4315  13.8084  13.8884  14.0580  14.1797
    14.2174  14.2757  14.4333  14.5127  14.5281  14.8381  14.8717  14.9367
    15.0723  15.1020  15.1754  15.2152  15.2712  15.3790  15.5240  15.8029
    15.9762  16.0038  16.1326  16.3277  16.4080  16.4527  16.4900  16.7855
    16.8080  16.8249  16.8641  17.0400  17.1616  17.1871  17.1934  17.4569
    17.4579  17.4668  17.5869  17.6387  17.9724  17.9970  18.0100  18.0121
    18.1656  18.3118  18.4095  18.4776  18.5487  18.5737  18.5801  18.7043
    18.8885  18.9730  19.0214  19.1418  19.2188  19.2716  19.4466  19.4909
    19.6943  19.7742  19.8864  20.0413  20.2401  20.2523  20.2671  20.2686
    20.3588  20.5176  20.5191  20.6523  20.7130  20.7973  20.8952  20.9468
    21.1400  21.1989  21.2173  21.2256  21.2759  21.4038  21.6438  21.6847
    21.7184  21.7515  21.8846  21.9149  22.0033  22.1178  22.2926  22.3559
    22.6205  22.7325  22.7329  22.8526  22.8537  22.8621  23.0070  23.1062
    23.1602  23.4393  23.4504  23.5280  23.5853  23.6529  23.7739  23.8199
    23.9206  23.9333  24.1884  24.2013  24.3487  24.3783  24.4737  24.4757
    24.6118  24.6167  24.7556  24.8956  24.9102  24.9511  25.1794  25.2452
    25.2678  25.2725  25.3236  25.3372  25.6249  25.6293  25.6548  25.7004
    25.8511  25.8594  25.9198  25.9925  26.1007  26.1099  26.2694  26.3105
    26.3235  26.6224  26.7028  26.7071  26.8512  26.9327  27.0093  27.0800
    27.1150  27.1484  27.2403  27.4407  27.4731  27.5052  27.6210  27.6445
    27.7765  27.8088  27.8795  27.8837  27.9395  27.9620  28.1090  28.1836
    28.3708  28.4666  28.4833  28.5881  28.6889  28.7534  28.7718  28.8321
    29.0026  29.0362  29.2560  29.4065  29.4590  29.6166  29.7405  29.7415
    29.7884  29.8694

          k = 0.0000-0.1833 0.4472 ( 34426 PWs)   bands (ev):

   -18.0907 -18.0798 -17.7658 -17.7553 -13.9919 -13.9675 -13.9319 -13.9307
   -13.9048 -13.8996 -13.8981 -13.8938 -13.8718 -13.8698 -12.6030 -12.5592
   -11.7554 -11.5807 -11.4271 -11.3804 -11.3598 -11.3541 -11.0900 -11.0654
   -10.7083 -10.6564 -10.1119  -9.9701  -9.4148  -9.3901  -7.6567  -7.6210
    -7.2513  -7.1893  -6.3242  -6.1984  -5.7057  -5.6560  -5.1671  -5.0824
    -4.8709  -4.8085  -4.4742  -4.2698  -4.1091  -4.0692  -3.2431  -3.0672
    -3.0314  -2.9859  -2.8782  -2.8349  -2.7207  -2.6528  -2.4021  -2.3649
    -2.1928  -2.1585  -0.6002  -0.5820  -0.5240  -0.1874  -0.1698   0.1121
     0.1531   0.2399   0.3644   0.4511   0.5602   0.5874   0.6624   0.7566
     0.7676   0.7744   0.9172   0.9753   1.0142   1.1157   1.1450   1.1749
     1.4845   1.5002   5.6951   5.7392   5.8980   6.0687   6.4128   6.4748
     7.2169   7.3175   7.4655   7.8462   8.0923   8.2714   8.5041   8.5618
     8.5859   8.6076   8.6610   8.8020   8.8671   9.0460   9.1245   9.1309
     9.2766   9.3258   9.3721   9.4008   9.5052   9.6793   9.7390   9.7737
     9.7917  10.0135  10.1326  10.1953  10.4047  10.4072  10.4781  10.7108
    10.8990  10.9977  11.0010  11.0742  11.1280  11.1927  11.3529  11.3570
    11.5135  11.5346  11.6512  11.6907  11.8361  11.9367  12.0928  12.1803
    12.3844  12.4070  12.5601  12.6027  12.6565  12.7054  12.8599  13.1573
    13.1858  13.3388  13.5139  13.5311  13.7438  13.8259  13.8624  13.8919
    13.9273  14.3518  14.4040  14.4114  14.6172  14.7405  14.8369  14.8556
    15.0518  15.1457  15.2400  15.3463  15.4605  15.4750  15.6281  15.6589
    15.9067  16.1068  16.1408  16.2391  16.2489  16.3075  16.3612  16.5158
    16.5491  16.6282  16.8967  16.9235  17.0042  17.1275  17.1484  17.2754
    17.3855  17.4171  17.6520  17.7444  17.7604  17.7843  17.8231  18.0901
    18.1568  18.2456  18.3469  18.4393  18.5503  18.6248  18.7364  18.8054
    18.8338  18.9990  19.1807  19.3195  19.3208  19.3448  19.3576  19.3715
    19.5047  19.5284  19.7065  19.8019  19.9034  19.9266  20.0332  20.1427
    20.1812  20.4686  20.4774  20.5344  20.6852  20.7464  20.8443  20.9942
    21.0690  21.2530  21.2953  21.3691  21.3915  21.4152  21.4876  21.5830
    21.7753  21.8106  21.9720  21.9781  22.0200  22.1154  22.2824  22.3309
    22.5114  22.5767  22.6123  22.7805  22.7972  22.9747  22.9836  23.0688
    23.0780  23.2790  23.3260  23.3888  23.4223  23.5097  23.5910  23.7623
    23.8140  23.8535  23.8731  23.9708  23.9905  24.0583  24.1841  24.1850
    24.3359  24.3477  24.4768  24.7963  24.8813  24.9928  25.0515  25.0518
    25.1802  25.1846  25.3219  25.4119  25.4236  25.6325  25.7102  25.7785
    25.8608  25.9747  26.0483  26.1424  26.1795  26.3056  26.3984  26.4476
    26.6098  26.6361  26.7715  26.8924  26.8928  27.0388  27.0904  27.0978
    27.1194  27.1612  27.2710  27.3787  27.6441  27.7299  27.7313  27.8127
    27.8637  28.0149  28.1101  28.1428  28.1822  28.3247  28.3289  28.4400
    28.4719  28.5409  28.5760  28.7530  28.7880  28.8824  28.9485  28.9941
    29.1061  29.1082  29.1420  29.3045  29.3541  29.4890  29.5478  29.7569
    29.8669  29.8899

          k = 0.1849-0.1833-0.0000 ( 34374 PWs)   bands (ev):

   -18.0927 -18.0818 -17.7676 -17.7570 -14.0212 -13.9881 -13.9311 -13.9287
   -13.9073 -13.8996 -13.8974 -13.8915 -13.8723 -13.8694 -12.6040 -12.5601
   -11.7874 -11.5727 -11.4266 -11.3484 -11.3194 -11.2981 -11.0970 -11.0662
   -10.6972 -10.6299 -10.0738  -9.9469  -9.3850  -9.3628  -7.7506  -7.7165
    -7.3359  -7.2716  -6.2993  -6.1793  -5.7091  -5.6588  -4.8929  -4.8528
    -4.8183  -4.7314  -4.4615  -4.2676  -4.0947  -4.0615  -3.2430  -3.0903
    -2.9692  -2.9232  -2.8787  -2.8368  -2.8190  -2.6323  -2.4414  -2.3919
    -2.2695  -2.1919  -1.3565  -0.9266  -0.7312  -0.6462  -0.2641   0.2057
     0.3509   0.3597   0.4911   0.5201   0.5923   0.6087   0.6590   0.7222
     0.7624   0.8687   0.9500   1.0372   1.0583   1.0852   1.1143   1.1689
     1.3058   1.3545   5.8539   5.9918   6.1791   6.3213   6.7889   7.1465
     7.2812   7.4807   7.6357   7.6625   8.0468   8.2535   8.4204   8.4597
     8.4794   8.5394   8.6702   8.6962   8.8355   8.8547   9.0621   9.0760
     9.3371   9.3705   9.4059   9.4345   9.4895   9.5709   9.5778   9.7625
     9.8906   9.9181  10.1089  10.2129  10.4210  10.7156  10.8086  10.8937
    11.0376  11.1533  11.1919  11.2428  11.3068  11.4044  11.5099  11.5394
    11.5719  11.7152  11.7655  11.9471  11.9898  12.0423  12.0986  12.3504
    12.4159  12.4972  12.5493  12.5901  12.7563  12.8392  12.8740  13.0063
    13.0785  13.0800  13.1308  13.4456  13.5728  13.7656  13.8077  13.9374
    13.9980  14.0871  14.1479  14.3139  14.5095  14.5561  14.6002  14.8039
    14.8652  14.9485  15.0209  15.0798  15.3831  15.4810  15.4841  15.6898
    15.7657  15.7789  15.9287  16.1407  16.2405  16.3363  16.3983  16.4666
    16.5830  16.6035  16.7374  16.8649  16.9238  17.1760  17.2941  17.3978
    17.4754  17.5705  17.5768  17.6263  17.8887  17.9638  18.0182  18.0872
    18.2017  18.2422  18.2866  18.3606  18.3720  18.4993  18.5039  18.6199
    18.8310  18.8567  19.0842  19.1773  19.2777  19.3512  19.4143  19.4398
    19.6458  19.7520  19.8288  19.8528  19.8987  20.0384  20.1236  20.1734
    20.3743  20.4937  20.5416  20.5687  20.5748  20.6280  20.7768  20.9334
    20.9557  21.0375  21.0383  21.1574  21.1696  21.2577  21.3324  21.5206
    21.5929  21.6309  21.8682  21.8916  21.9308  21.9820  22.0131  22.2103
    22.3922  22.4669  22.4676  22.5909  22.6325  22.6689  22.9683  22.9995
    23.1448  23.1794  23.2933  23.3061  23.3346  23.5234  23.6287  23.6778
    23.7502  23.8164  23.8220  23.9179  24.1071  24.1355  24.1458  24.2767
    24.3162  24.4924  24.6442  24.7202  24.7784  24.8372  24.8376  25.0188
    25.0688  25.1894  25.2897  25.3150  25.5817  25.6086  25.6981  25.7372
    25.7946  25.9800  26.0596  26.1773  26.3447  26.4169  26.4793  26.4934
    26.5465  26.5547  26.7848  26.7857  26.8574  26.9193  26.9935  26.9987
    27.2718  27.4121  27.4474  27.5032  27.6977  27.7030  27.7289  27.7873
    27.8785  28.0353  28.0822  28.1259  28.2482  28.3001  28.4457  28.4770
    28.5799  28.7109  28.7943  28.8971  28.9000  29.0283  29.0684  29.1033
    29.1954  29.2497  29.2781  29.3799  29.3954  29.4644  29.7292  29.8101
    29.9092  29.9759

          k = 0.3698-0.1833-0.4472 ( 34407 PWs)   bands (ev):

   -18.0859 -18.0847 -17.7612 -17.7597 -13.9919 -13.9675 -13.9319 -13.9307
   -13.9048 -13.8996 -13.8981 -13.8938 -13.8718 -13.8698 -12.5867 -12.5749
   -11.7569 -11.5795 -11.4323 -11.3814 -11.3632 -11.3471 -11.0829 -11.0743
   -10.7116 -10.6511 -10.0765 -10.0024  -9.4045  -9.4016  -7.6431  -7.6376
    -7.2227  -7.2160  -6.2738  -6.2436  -5.7270  -5.6394  -5.1742  -5.0978
    -4.8659  -4.8019  -4.4534  -4.2825  -4.0954  -4.0790  -3.1795  -3.1222
    -3.0099  -3.0010  -2.8721  -2.8541  -2.7394  -2.6368  -2.4016  -2.3647
    -2.1771  -2.1720  -0.6028  -0.5929  -0.5013  -0.2167  -0.1480   0.0837
     0.1275   0.2224   0.3656   0.4598   0.5821   0.6203   0.6653   0.7261
     0.7732   0.8448   0.9442   0.9929   1.0267   1.0818   1.1116   1.1638
     1.4325   1.5264   5.7215   5.7577   5.9361   6.0397   6.3564   6.4876
     7.0520   7.4592   7.5056   7.8906   8.0138   8.2127   8.4221   8.4878
     8.5930   8.6955   8.7124   8.8454   8.9258   8.9979   9.0540   9.1784
     9.2148   9.3073   9.3953   9.4984   9.6250   9.6653   9.7108   9.7500
     9.8838  10.0177  10.1822  10.2610  10.2882  10.4365  10.4997  10.6899
    10.7246  10.8386  10.9483  10.9991  11.0835  11.1446  11.2845  11.3979
    11.4975  11.6762  11.7178  11.7726  11.9067  12.0217  12.0848  12.2023
    12.3249  12.3531  12.4527  12.6538  12.6954  12.7964  12.9526  13.0590
    13.1043  13.2822  13.5071  13.6024  13.8187  13.8317  13.9113  14.0151
    14.1430  14.1848  14.3586  14.5472  14.7052  14.7737  14.8155  15.0283
    15.0560  15.1811  15.2515  15.2702  15.4593  15.5430  15.6158  15.7432
    15.8239  15.9094  16.0181  16.1918  16.2164  16.2504  16.4311  16.4970
    16.5863  16.6478  16.8865  16.9163  16.9692  17.0947  17.1387  17.2418
    17.3293  17.4458  17.5937  17.6360  17.6579  17.8221  17.8628  17.9358
    18.0550  18.1856  18.2302  18.2791  18.3739  18.5259  18.5788  18.6762
    18.7928  18.8723  18.9820  19.0885  19.2170  19.3170  19.5049  19.5128
    19.6712  19.7223  19.8675  19.9146  20.0060  20.0686  20.1968  20.2997
    20.3481  20.4501  20.4875  20.5832  20.6082  20.7817  20.9176  20.9724
    21.1033  21.2073  21.2806  21.3656  21.4826  21.6404  21.6734  21.7909
    21.8376  21.8804  21.9960  22.0842  22.1764  22.2284  22.2860  22.3661
    22.4629  22.5476  22.5892  22.7488  22.7852  22.8461  22.9295  22.9975
    23.1448  23.2381  23.3623  23.4230  23.4508  23.5011  23.5548  23.6929
    23.7733  23.8264  23.9110  23.9153  24.0345  24.1396  24.2968  24.3534
    24.4229  24.4943  24.6499  24.7146  24.7869  24.8559  24.9585  25.0794
    25.1048  25.2672  25.3486  25.4404  25.4772  25.5577  25.6950  25.7592
    25.7787  25.8829  26.0107  26.1049  26.1347  26.2403  26.3144  26.4287
    26.5100  26.5481  26.6463  26.7241  26.7981  26.9110  26.9634  27.0457
    27.1640  27.2854  27.3483  27.3768  27.5305  27.5526  27.7038  27.7604
    27.8863  27.9840  28.0877  28.1835  28.3037  28.3376  28.4228  28.4497
    28.4810  28.5921  28.6200  28.7339  28.7586  28.8649  28.9074  29.0154
    29.1006  29.2040  29.2854  29.3839  29.4652  29.5508  29.5640  29.6375
    29.6950  29.7813

          k = 0.5547-0.1833-0.8945 ( 34420 PWs)   bands (ev):

   -18.0840 -18.0828 -17.7595 -17.7579 -13.9514 -13.9513 -13.9355 -13.9354
   -13.8993 -13.8993 -13.8992 -13.8992 -13.8707 -13.8707 -12.5856 -12.5741
   -11.6575 -11.6547 -11.4354 -11.4330 -11.4020 -11.3893 -11.0766 -11.0620
   -10.7417 -10.6623 -10.1135 -10.0247  -9.4314  -9.4269  -7.5473  -7.5425
    -7.1409  -7.1359  -6.2973  -6.2677  -5.7223  -5.6358  -5.3656  -5.3543
    -4.9037  -4.8264  -4.4613  -4.2838  -4.1063  -4.0949  -3.2287  -3.1609
    -2.9734  -2.9558  -2.9157  -2.8461  -2.7235  -2.6326  -2.3688  -2.3313
    -2.1308  -2.1097  -0.2820  -0.2705  -0.2524  -0.2176  -0.0641   0.0212
     0.1603   0.2392   0.4992   0.5196   0.5778   0.6491   0.7044   0.7504
     0.7829   0.8122   0.9475   0.9830   1.0215   1.0507   1.1475   1.1633
     1.8143   1.8468   4.5942   4.6130   5.8405   5.8797   5.9899   6.0021
     7.4547   7.6024   7.8933   8.0011   8.1913   8.2729   8.3525   8.4128
     8.6299   8.7010   8.7347   8.8256   8.9764   9.0225   9.1416   9.2111
     9.3095   9.3759   9.4347   9.4739   9.5147   9.6473   9.7664   9.8825
     9.9431  10.0533  10.0746  10.1285  10.2893  10.3502  10.4653  10.5852
    10.6946  10.7851  10.9310  10.9688  11.0471  11.1511  11.1882  11.2228
    11.2938  11.4310  11.5093  11.5292  11.6741  11.7713  11.8445  12.1198
    12.2308  12.3164  12.5020  12.6619  12.8787  12.9034  13.0588  13.0905
    13.1675  13.2437  13.3531  13.5039  13.7300  13.8397  13.8639  14.0556
    14.2569  14.3412  14.4106  14.4509  14.6468  14.7227  14.8509  14.9451
    15.0312  15.1729  15.2142  15.4173  15.5303  15.5336  15.7172  15.7850
    15.9941  16.1199  16.1329  16.2063  16.2580  16.4045  16.5457  16.5732
    16.8061  16.8670  17.0325  17.0928  17.1082  17.1736  17.1987  17.3458
    17.4594  17.6045  17.6282  17.7124  17.7620  17.8970  18.0078  18.0794
    18.1737  18.2082  18.3444  18.3806  18.5646  18.6178  18.6720  18.7640
    18.8570  18.9334  19.0294  19.1322  19.2251  19.2477  19.3915  19.5352
    19.5389  19.6331  19.8282  19.9125  20.0297  20.0698  20.2775  20.3307
    20.4272  20.5263  20.6440  20.7428  20.7906  20.8673  20.9031  20.9772
    21.0261  21.1942  21.2435  21.2884  21.4070  21.5433  21.6570  21.7339
    21.7501  21.8649  21.9278  21.9873  22.0849  22.1870  22.2979  22.3882
    22.4885  22.6500  22.7809  22.7913  22.9487  22.9657  22.9978  23.0928
    23.2284  23.2760  23.4386  23.4810  23.6314  23.6651  23.6934  23.7658
    23.9438  23.9532  24.1186  24.1667  24.1916  24.3598  24.4071  24.4838
    24.6012  24.6404  24.7085  24.7809  24.8783  24.9658  24.9963  25.0710
    25.2078  25.3435  25.3641  25.4534  25.4833  25.5497  25.6739  25.7660
    25.8779  25.9218  25.9977  26.0842  26.2251  26.2771  26.3368  26.4293
    26.5353  26.5889  26.6731  26.7560  26.9042  26.9560  27.0025  27.1261
    27.1837  27.2719  27.3093  27.3568  27.4651  27.5269  27.5450  27.6724
    27.7230  27.8051  27.8597  27.9293  27.9707  28.1011  28.1781  28.2644
    28.3241  28.4601  28.5051  28.5827  28.6431  28.7424  28.8913  28.9497
    29.0003  29.0431  29.0798  29.1960  29.2552  29.4092  29.4573  29.5208
    29.6017  29.6624

          k = 0.0000-0.3666 0.8945 ( 34440 PWs)   bands (ev):

   -18.0834 -18.0834 -17.7587 -17.7587 -13.9513 -13.9513 -13.9355 -13.9355
   -13.8993 -13.8993 -13.8992 -13.8992 -13.8707 -13.8707 -12.5800 -12.5800
   -11.6561 -11.6561 -11.4308 -11.4308 -11.3989 -11.3989 -11.0701 -11.0701
   -10.7040 -10.7040 -10.0667 -10.0667  -9.4289  -9.4289  -7.5451  -7.5451
    -7.1377  -7.1377  -6.2860  -6.2860  -5.6788  -5.6788  -5.3573  -5.3573
    -4.8699  -4.8699  -4.3658  -4.3658  -4.1049  -4.1049  -3.2041  -3.2041
    -2.9700  -2.9700  -2.8593  -2.8593  -2.6845  -2.6845  -2.3477  -2.3477
    -2.1197  -2.1197  -0.2618  -0.2618  -0.2478  -0.2478  -0.0329  -0.0329
     0.2106   0.2106   0.5090   0.5090   0.5866   0.5866   0.7474   0.7474
     0.7944   0.7944   0.9697   0.9697   1.0229   1.0229   1.1687   1.1687
     1.8386   1.8386   4.6009   4.6009   5.8344   5.8344   6.0035   6.0035
     7.5591   7.5591   8.0229   8.0229   8.1857   8.1857   8.3108   8.3108
     8.6945   8.6945   8.7822   8.7822   8.9876   8.9876   9.1530   9.1530
     9.3356   9.3356   9.4593   9.4593   9.5425   9.5425   9.8448   9.8448
    10.0194  10.0194  10.0837  10.0837  10.2932  10.2932  10.6314  10.6314
    10.7680  10.7680  10.9798  10.9798  11.0291  11.0291  11.3246  11.3246
    11.3953  11.3953  11.5443  11.5443  11.7088  11.7088  11.9298  11.9298
    12.0849  12.0849  12.5725  12.5725  12.8136  12.8136  13.1110  13.1110
    13.2410  13.2410  13.3798  13.3798  13.8770  13.8770  13.9772  13.9772
    14.2417  14.2417  14.3459  14.3459  14.5634  14.5634  14.9313  14.9313
    15.2635  15.2635  15.4509  15.4509  15.6900  15.6900  15.8384  15.8384
    15.8757  15.8757  16.2293  16.2293  16.3323  16.3323  16.4256  16.4256
    16.8375  16.8375  17.0875  17.0875  17.2578  17.2578  17.3211  17.3211
    17.4466  17.4466  17.5506  17.5506  17.9287  17.9287  18.0392  18.0392
    18.1488  18.1488  18.3348  18.3348  18.4440  18.4440  18.6924  18.6924
    18.9913  18.9913  19.0981  19.0981  19.2944  19.2944  19.3738  19.3738
    19.6167  19.6167  19.7907  19.7907  20.0622  20.0622  20.1031  20.1031
    20.5267  20.5267  20.7154  20.7154  20.8465  20.8465  20.9651  20.9651
    21.2026  21.2026  21.3739  21.3739  21.4839  21.4839  21.6668  21.6668
    21.7245  21.7245  21.9218  21.9218  22.0763  22.0763  22.2718  22.2718
    22.7108  22.7108  22.8148  22.8148  22.9447  22.9447  23.0593  23.0593
    23.4095  23.4095  23.6197  23.6197  23.6359  23.6359  23.9047  23.9047
    24.0266  24.0266  24.0629  24.0629  24.1657  24.1657  24.4514  24.4514
    24.5006  24.5006  24.6910  24.6910  24.8812  24.8812  24.9343  24.9343
    25.1705  25.1705  25.2933  25.2933  25.4047  25.4047  25.8648  25.8648
    25.9355  25.9355  26.1088  26.1088  26.2125  26.2125  26.3609  26.3609
    26.5921  26.5921  26.8069  26.8069  26.8955  26.8955  27.0253  27.0253
    27.3265  27.3265  27.4132  27.4132  27.5592  27.5592  27.6285  27.6285
    27.7314  27.7314  27.8719  27.8719  27.9449  27.9449  28.2284  28.2284
    28.4575  28.4575  28.6520  28.6520  28.8382  28.8382  28.9071  28.9071
    29.0031  29.0031  29.1918  29.1918  29.3133  29.3133  29.5248  29.5248
    29.6770  29.6770

          k = 0.1849-0.3666 0.4472 ( 34420 PWs)   bands (ev):

   -18.0887 -18.0819 -17.7648 -17.7563 -13.9919 -13.9675 -13.9319 -13.9307
   -13.9048 -13.8996 -13.8981 -13.8938 -13.8718 -13.8698 -12.5921 -12.5694
   -11.7569 -11.5789 -11.4319 -11.3822 -11.3574 -11.3512 -11.0931 -11.0670
   -10.7198 -10.6421 -10.0647 -10.0141  -9.4108  -9.3953  -7.6543  -7.6253
    -7.2392  -7.2001  -6.2936  -6.2260  -5.6968  -5.6700  -5.1735  -5.0896
    -4.8878  -4.7966  -4.3772  -4.3480  -4.1088  -4.0692  -3.1876  -3.1149
    -3.0193  -2.9953  -2.8860  -2.8389  -2.7124  -2.6624  -2.3808  -2.3789
    -2.1852  -2.1644  -0.5998  -0.5984  -0.4941  -0.2211  -0.1508   0.0882
     0.1296   0.2231   0.3733   0.4625   0.5590   0.5904   0.6946   0.7335
     0.7710   0.8563   0.9316   0.9607   1.0060   1.0969   1.1131   1.1617
     1.4724   1.5349   5.6970   5.7525   5.9323   6.0056   6.3782   6.4838
     7.2226   7.3401   7.5414   7.9081   7.9415   8.2341   8.4281   8.4629
     8.5561   8.6754   8.7550   8.8239   8.9269   8.9810   9.0553   9.1958
     9.2669   9.3095   9.4120   9.4574   9.5492   9.6647   9.7064   9.7866
     9.8517  10.1107  10.1358  10.1568  10.3470  10.4506  10.5601  10.7347
    10.8089  10.8607  11.0010  11.0243  11.1179  11.1400  11.2007  11.4179
    11.4935  11.5534  11.7193  11.7528  11.8986  11.9667  12.0161  12.1983
    12.3401  12.4405  12.5038  12.5356  12.6615  12.7776  12.9149  13.1429
    13.2112  13.2670  13.5428  13.6483  13.7181  13.8259  13.9126  14.0600
    14.2255  14.3314  14.3753  14.3994  14.5646  14.6200  14.8783  14.9040
    15.0640  15.1429  15.2169  15.2871  15.4190  15.5325  15.6047  15.7134
    15.9435  16.0085  16.0642  16.1235  16.2746  16.3222  16.4694  16.5301
    16.6759  16.7191  16.7602  16.8537  16.8895  17.0072  17.1070  17.2548
    17.3117  17.4576  17.5712  17.6622  17.7352  17.8283  17.9376  18.0068
    18.1153  18.2061  18.2785  18.3370  18.5094  18.6095  18.6541  18.6661
    18.8085  18.9084  19.0776  19.1733  19.2399  19.2756  19.4118  19.4538
    19.6152  19.6470  19.7800  19.8198  19.9522  20.0180  20.1212  20.1425
    20.3008  20.4520  20.4965  20.5223  20.6180  20.7296  20.8300  20.9191
    20.9744  21.0909  21.2537  21.3105  21.3635  21.5775  21.6760  21.7400
    21.8208  21.8549  22.0545  22.0782  22.1606  22.2429  22.3695  22.4460
    22.5013  22.6586  22.7192  22.7816  22.8806  22.9256  23.0410  23.0854
    23.1486  23.3491  23.3797  23.4095  23.4795  23.5766  23.6552  23.7481
    23.8211  23.8338  23.9198  24.0774  24.2000  24.2291  24.2645  24.3276
    24.4629  24.5146  24.6512  24.7066  24.7616  24.8607  24.9053  25.0187
    25.0734  25.1856  25.2782  25.3447  25.4275  25.5123  25.6123  25.7402
    25.8198  25.8786  25.9026  26.0266  26.0585  26.1571  26.2472  26.3790
    26.4938  26.6201  26.7257  26.7965  26.8516  26.9624  26.9784  27.0340
    27.1107  27.2092  27.2704  27.4020  27.4644  27.5100  27.6260  27.7559
    27.8849  27.9230  27.9958  28.1584  28.2375  28.2541  28.3159  28.4672
    28.5530  28.5869  28.6643  28.7194  28.8020  28.9172  28.9472  28.9940
    29.1567  29.2101  29.2854  29.4089  29.4775  29.5354  29.6529  29.6714
    29.7519  29.8906

          k = 0.3698-0.3666-0.0000 ( 34404 PWs)   bands (ev):

   -18.0874 -18.0872 -17.7622 -17.7622 -14.0213 -13.9881 -13.9310 -13.9287
   -13.9073 -13.8996 -13.8974 -13.8915 -13.8723 -13.8694 -12.5831 -12.5804
   -11.7899 -11.5700 -11.4272 -11.3527 -11.3171 -11.2963 -11.0849 -11.0837
   -10.6645 -10.6612 -10.0180  -9.9977  -9.3750  -9.3737  -7.7362  -7.7339
    -7.3021  -7.3021  -6.2449  -6.2352  -5.6900  -5.6828  -4.8952  -4.8613
    -4.8294  -4.7246  -4.3717  -4.3372  -4.0868  -4.0754  -3.2061  -3.0419
    -3.0176  -2.9643  -2.8761  -2.8447  -2.8205  -2.6154  -2.4249  -2.4079
    -2.2349  -2.2225  -1.3783  -0.9084  -0.7250  -0.6255  -0.2844   0.1706
     0.3517   0.3854   0.4838   0.4909   0.5746   0.6122   0.6511   0.7284
     0.8339   0.8502   0.9566   0.9914   1.0491   1.0843   1.1221   1.1547
     1.3445   1.3822   5.7860   6.0482   6.0794   6.3843   6.8535   7.0913
     7.3760   7.4801   7.6605   7.7455   7.8416   8.2549   8.2708   8.4886
     8.5244   8.5750   8.6198   8.7757   8.9147   8.9231   9.0000   9.0016
     9.2950   9.3324   9.3792   9.4555   9.5253   9.5574   9.6481   9.7315
     9.8208   9.8857  10.1672  10.3541  10.5436  10.7368  10.7853  10.8739
    11.0071  11.1261  11.1848  11.2596  11.2935  11.3440  11.3561  11.4613
    11.4942  11.5556  11.6806  12.1237  12.1410  12.1709  12.1955  12.4115
    12.4552  12.4720  12.5524  12.6187  12.7219  12.7409  12.8202  12.9025
    12.9298  13.4317  13.5367  13.5418  13.5791  13.6042  13.7531  13.8457
    14.0580  14.0620  14.1175  14.2185  14.2995  14.3288  14.7424  14.8503
    14.9405  15.0609  15.1920  15.3106  15.4483  15.5224  15.6310  15.6336
    15.7224  15.8504  15.9220  15.9455  16.1941  16.2027  16.3487  16.3902
    16.4326  16.7156  16.9443  16.9551  16.9892  16.9941  17.2489  17.3407
    17.4275  17.4880  17.5516  17.5787  17.7911  17.8372  17.9388  17.9869
    18.1134  18.1285  18.2484  18.3254  18.3960  18.4392  18.5516  18.5579
    18.7613  18.8142  18.8913  19.0367  19.1986  19.2476  19.2784  19.5266
    19.5715  19.8622  19.9030  19.9048  19.9808  20.0216  20.0248  20.3040
    20.3206  20.4664  20.4920  20.5357  20.5953  20.5959  20.7392  20.9083
    20.9622  20.9743  21.0357  21.3019  21.3222  21.3580  21.4475  21.6869
    21.8669  21.9893  22.0346  22.1925  22.2060  22.2959  22.3464  22.3497
    22.4831  22.5312  22.6251  22.7545  22.7769  22.8237  23.0253  23.0800
    23.1930  23.2955  23.3076  23.3359  23.3384  23.3907  23.4986  23.5103
    23.5549  23.5833  23.6284  23.7781  23.8374  23.9269  24.1091  24.2135
    24.2779  24.5864  24.6942  24.7712  24.8391  24.8897  24.8920  24.9279
    24.9601  25.1383  25.2497  25.3329  25.3759  25.4071  25.5600  25.6943
    25.7575  25.8963  26.0803  26.1311  26.2403  26.3277  26.3388  26.4611
    26.5627  26.6317  26.7061  26.8303  26.9246  27.0304  27.0826  27.0895
    27.2829  27.3049  27.4340  27.4981  27.5588  27.6334  27.6510  27.6729
    27.8486  27.8658  27.8785  28.0131  28.0854  28.1897  28.4386  28.6824
    28.7125  28.7235  28.7568  28.7727  28.9444  28.9988  29.0034  29.0483
    29.0540  29.1534  29.3156  29.3225  29.4502  29.6482  29.7316  29.8342
    29.9341  29.9625

          k = 0.3698-0.0000 0.0000 ( 34414 PWs)   bands (ev):

   -18.0882 -18.0864 -17.7634 -17.7612 -14.0213 -13.9881 -13.9310 -13.9287
   -13.9073 -13.8996 -13.8974 -13.8915 -13.8723 -13.8694 -12.5902 -12.5734
   -11.7902 -11.5699 -11.4250 -11.3490 -11.3212 -11.2993 -11.0873 -11.0807
   -10.6910 -10.6303 -10.0510  -9.9684  -9.3752  -9.3737  -7.7398  -7.7304
    -7.3084  -7.2962  -6.2595  -6.2173  -5.7481  -5.6242  -4.9055  -4.8970
    -4.7550  -4.7315  -4.4781  -4.2514  -4.0981  -4.0633  -3.2145  -3.0861
    -2.9555  -2.9308  -2.8929  -2.8739  -2.8252  -2.6110  -2.4362  -2.4004
    -2.2542  -2.2019  -1.3851  -0.9055  -0.7250  -0.6383  -0.2803   0.1878
     0.3039   0.4092   0.4673   0.5621   0.6061   0.6259   0.6732   0.7201
     0.7598   0.8162   1.0067   1.0439   1.0642   1.0699   1.1456   1.1686
     1.2395   1.3432   5.8691   6.0303   6.2478   6.3016   6.5949   7.2559
     7.3849   7.4798   7.6591   7.6668   7.9079   8.0636   8.3236   8.4937
     8.5400   8.5502   8.6443   8.8303   8.9262   8.9500   8.9862   9.2162
     9.2257   9.2634   9.3512   9.4452   9.5032   9.5535   9.5963   9.7601
     9.9022  10.0770  10.1382  10.1690  10.5445  10.6335  10.7329  10.9167
    10.9425  11.0857  11.1646  11.2232  11.2647  11.3261  11.4210  11.5137
    11.5561  11.7136  11.7477  12.0714  12.1828  12.2024  12.2564  12.3399
    12.3748  12.4054  12.4337  12.5706  12.5905  12.7649  12.8374  12.8829
    12.8858  13.1503  13.2630  13.5621  13.6593  13.9114  14.0097  14.0909
    14.1366  14.2181  14.2468  14.3510  14.5698  14.6191  14.6921  14.8446
    14.9001  14.9562  15.1179  15.1984  15.3856  15.4007  15.5552  15.6945
    15.7111  15.7120  15.8304  15.9945  16.1191  16.1365  16.1672  16.3375
    16.4268  16.5114  16.5920  16.8046  16.9037  17.0418  17.1633  17.1863
    17.5697  17.6095  17.6999  17.7039  17.7329  17.7871  17.8178  17.9551
    18.0182  18.2128  18.2515  18.3151  18.3673  18.4887  18.6886  18.7294
    18.8253  19.0165  19.1176  19.1612  19.3875  19.4311  19.4419  19.5314
    19.6994  19.8502  19.8735  19.9469  20.1590  20.1850  20.2111  20.2717
    20.3538  20.3701  20.3767  20.4261  20.5517  20.5550  20.6860  20.9082
    20.9750  21.0436  21.1616  21.1783  21.2286  21.2865  21.3412  21.4478
    21.6365  21.7072  21.8610  21.9338  21.9640  22.1542  22.1584  22.3188
    22.3953  22.4029  22.4846  22.5754  22.7043  22.9079  22.9203  23.0214
    23.0782  23.1158  23.2120  23.2509  23.4975  23.6451  23.6572  23.7374
    23.7754  23.8881  23.9471  23.9707  24.0454  24.2976  24.3512  24.5142
    24.6113  24.6399  24.6406  24.6786  24.8023  24.8235  24.9337  24.9492
    25.0106  25.1572  25.4318  25.4387  25.4398  25.5426  25.5584  25.5686
    25.7617  25.9532  25.9873  25.9932  26.0933  26.2992  26.3076  26.4350
    26.4604  26.5304  26.6229  26.8587  26.9169  26.9589  26.9799  27.0547
    27.0679  27.0993  27.2027  27.2899  27.3082  27.6072  27.6331  27.7209
    27.9346  27.9652  28.0964  28.1726  28.1784  28.2853  28.3371  28.4232
    28.4896  28.5453  28.6789  28.7302  28.8236  28.8993  28.9843  29.1300
    29.1672  29.2157  29.2862  29.5163  29.6480  29.6518  29.6995  29.7080
    29.8512  29.9312

          k = 0.5547-0.0000-0.4472 ( 34416 PWs)   bands (ev):

   -18.0879 -18.0827 -17.7659 -17.7552 -13.9919 -13.9674 -13.9319 -13.9307
   -13.9048 -13.8996 -13.8981 -13.8938 -13.8718 -13.8698 -12.5833 -12.5772
   -11.7586 -11.5766 -11.4346 -11.3740 -11.3682 -11.3463 -11.1047 -11.0631
   -10.7536 -10.5910 -10.0716 -10.0164  -9.4096  -9.3981  -7.6584  -7.6216
    -7.2342  -7.2046  -6.2679  -6.2434  -5.7618  -5.6103  -5.1887  -5.0932
    -4.9140  -4.7255  -4.4843  -4.2602  -4.1215  -4.0608  -3.1715  -3.1300
    -3.0251  -2.9822  -2.8608  -2.8573  -2.7524  -2.6408  -2.4054  -2.3561
    -2.1807  -2.1682  -0.6152  -0.5975  -0.4807  -0.2475  -0.1282   0.0816
     0.1181   0.2051   0.3650   0.4706   0.5968   0.6314   0.6614   0.7392
     0.8081   0.8431   0.9298   1.0053   1.0570   1.0653   1.1193   1.1542
     1.3712   1.5238   5.7337   5.8019   5.9620   6.0555   6.3526   6.4559
     6.9606   7.5723   7.5997   7.8095   8.0036   8.0415   8.2252   8.4590
     8.5811   8.5945   8.7904   8.9348   9.0074   9.0107   9.1319   9.2023
     9.2994   9.4239   9.4716   9.5692   9.5775   9.6031   9.6672   9.8970
     9.9425  10.0530  10.1399  10.1825  10.1912  10.3806  10.4811  10.6128
    10.6855  10.7151  10.9218  10.9329  11.1349  11.2616  11.3107  11.3298
    11.5464  11.5510  11.6577  11.7653  11.8701  11.9154  11.9984  12.3005
    12.3790  12.4676  12.4692  12.6415  12.7283  12.8872  13.0643  13.1225
    13.2024  13.3807  13.5007  13.5576  13.7901  13.9427  13.9553  14.0115
    14.1263  14.1511  14.3617  14.6762  14.7277  14.8578  14.9126  15.0120
    15.0124  15.1440  15.2838  15.3478  15.5126  15.5842  15.6116  15.7175
    15.8002  15.9071  15.9453  16.1239  16.1723  16.3209  16.3956  16.5079
    16.5163  16.5948  16.6849  16.7608  16.8612  16.9505  17.0177  17.1650
    17.2605  17.4112  17.5142  17.5929  17.6768  17.8096  17.8687  17.9555
    17.9654  18.0262  18.1393  18.2983  18.3405  18.5103  18.5575  18.6895
    18.7924  18.9338  18.9828  19.0307  19.2815  19.2980  19.3579  19.4341
    19.6255  19.7015  19.9316  20.0070  20.1069  20.3163  20.4343  20.4887
    20.4988  20.5271  20.6443  20.6565  20.7337  20.8815  20.8997  21.0476
    21.0667  21.2530  21.3059  21.3891  21.4932  21.5124  21.7108  21.7158
    21.7728  21.8940  21.9088  22.0300  22.2160  22.2180  22.2873  22.3454
    22.4090  22.4944  22.5981  22.6449  22.6850  22.7248  22.9328  23.0026
    23.1893  23.2135  23.3220  23.3695  23.4622  23.6539  23.7392  23.8047
    23.8309  23.9304  23.9446  24.1215  24.1621  24.2745  24.2910  24.5546
    24.5594  24.5787  24.7382  24.7551  24.8159  24.9053  25.1114  25.1373
    25.2088  25.2716  25.3071  25.4185  25.4320  25.5917  25.6330  25.7335
    25.7760  25.7998  25.8606  25.9874  26.1209  26.1395  26.2456  26.3108
    26.3960  26.5317  26.6102  26.6468  26.6964  26.9763  27.0208  27.1834
    27.1868  27.3090  27.4037  27.4790  27.5284  27.6045  27.6099  27.7269
    27.7930  27.9242  27.9395  28.0066  28.0164  28.1507  28.1709  28.2796
    28.3386  28.4780  28.4934  28.7019  28.7096  28.7480  28.8731  28.9521
    29.0121  29.0443  29.2146  29.2346  29.3573  29.3654  29.5813  29.6276
    29.7251  29.8344

          k = 0.7397-0.0000-0.8945 ( 34424 PWs)   bands (ev):

   -18.0843 -18.0825 -17.7598 -17.7576 -13.9514 -13.9513 -13.9355 -13.9354
   -13.8993 -13.8993 -13.8992 -13.8992 -13.8707 -13.8707 -12.5880 -12.5717
   -11.6575 -11.6548 -11.4311 -11.4269 -11.4098 -11.3911 -11.0816 -11.0591
   -10.7548 -10.6426 -10.1349 -10.0083  -9.4325  -9.4260  -7.5485  -7.5415
    -7.1412  -7.1341  -6.3060  -6.2623  -5.7411  -5.6180  -5.3638  -5.3512
    -4.9134  -4.7947  -4.5091  -4.2507  -4.1126  -4.0973  -3.2654  -3.1355
    -2.9830  -2.9528  -2.8699  -2.8641  -2.7244  -2.6367  -2.3797  -2.3258
    -2.1358  -2.1060  -0.2895  -0.2694  -0.2519  -0.1977  -0.0822   0.0891
     0.0938   0.2446   0.4884   0.5129   0.5940   0.6489   0.6991   0.7539
     0.7822   0.8024   0.9893   1.0047   1.0066   1.0382   1.1347   1.1581
     1.8066   1.8437   4.5898   4.6133   5.8709   5.9405   5.9555   5.9740
     7.4621   7.6398   7.7720   7.9827   8.1835   8.2834   8.3277   8.4134
     8.7144   8.7464   8.7930   8.8906   8.9362   9.0409   9.1300   9.1770
     9.2699   9.3889   9.4356   9.5186   9.5312   9.5673   9.7427   9.7506
     9.9489  10.0628  10.1493  10.2572  10.2726  10.3202  10.5513  10.5560
    10.6057  10.6762  10.9432  11.0184  11.1014  11.1367  11.1905  11.2119
    11.3177  11.3997  11.4409  11.4765  11.4965  11.6533  11.7754  12.3493
    12.4229  12.5283  12.5353  12.7255  12.8721  13.0001  13.0255  13.1506
    13.1869  13.1882  13.2607  13.3263  13.6746  13.7798  13.8016  14.0477
    14.2005  14.3920  14.4696  14.5658  14.6954  14.7807  14.9649  15.0144
    15.0670  15.2276  15.3800  15.4096  15.4124  15.4368  15.6225  15.7715
    15.7983  16.0009  16.0089  16.2520  16.3623  16.3777  16.4060  16.4630
    16.7101  16.7727  16.8575  17.0641  17.0649  17.2937  17.3244  17.4549
    17.4833  17.5504  17.7444  17.8567  17.9621  17.9989  18.0849  18.1004
    18.2699  18.2700  18.2931  18.3721  18.5157  18.6383  18.7000  18.7126
    18.8161  18.9293  19.0313  19.0425  19.2283  19.3015  19.3410  19.4888
    19.5831  19.6174  19.8523  19.9694  20.0507  20.1745  20.2043  20.2045
    20.2095  20.3173  20.4559  20.6563  20.6869  20.8564  20.8614  20.9698
    21.1477  21.1784  21.2957  21.3944  21.6187  21.6422  21.6502  21.7233
    21.8087  21.8934  21.8977  22.0404  22.1871  22.3744  22.4291  22.4564
    22.4716  22.6021  22.7626  22.8648  22.9449  22.9570  23.0671  23.1382
    23.1716  23.3263  23.3797  23.3931  23.6258  23.6835  23.7185  23.8174
    23.8335  23.8507  23.8826  23.9551  24.2017  24.2411  24.2585  24.5451
    24.6106  24.6692  24.6986  24.8325  25.0653  25.1018  25.1058  25.2078
    25.2126  25.3619  25.4255  25.5290  25.5313  25.5798  25.5853  25.6178
    25.7502  25.8475  25.8567  26.0438  26.1378  26.3034  26.4398  26.4945
    26.6687  26.7458  26.7663  26.7695  26.8217  27.0360  27.1009  27.1589
    27.2031  27.2149  27.2893  27.3491  27.3855  27.4534  27.5584  27.6087
    27.7053  27.7736  27.8349  27.8377  27.9517  28.0092  28.0515  28.1537
    28.1852  28.2160  28.3917  28.5253  28.5657  28.5738  28.7342  28.8406
    28.9745  29.1879  29.2051  29.2883  29.3520  29.4337  29.4696  29.5105
    29.7088  29.7531

          k = 0.5547-0.1833 0.0000 ( 34401 PWs)   bands (ev):

   -18.0915 -18.0830 -17.7691 -17.7555 -14.0213 -13.9880 -13.9310 -13.9287
   -13.9073 -13.8996 -13.8974 -13.8915 -13.8723 -13.8694 -12.5913 -12.5710
   -11.7930 -11.5649 -11.4258 -11.3522 -11.3191 -11.2956 -11.1133 -11.0675
   -10.7284 -10.5777 -10.0204 -10.0055  -9.3852  -9.3649  -7.7577  -7.7105
    -7.3264  -7.2796  -6.2661  -6.2055  -5.7513  -5.6265  -4.9444  -4.9064
    -4.7489  -4.7058  -4.4168  -4.2946  -4.1233  -4.0417  -3.1777  -3.0556
    -2.9963  -2.9695  -2.8918  -2.8837  -2.8210  -2.5961  -2.4181  -2.4088
    -2.2293  -2.2218  -1.4075  -0.8871  -0.7329  -0.6162  -0.3008   0.1905
     0.2739   0.3994   0.5098   0.5732   0.5941   0.6280   0.6534   0.7210
     0.8170   0.8176   0.9353   1.0213   1.0364   1.0576   1.1567   1.1740
     1.2889   1.3710   5.8911   6.0778   6.1089   6.3042   6.6815   7.3466
     7.4353   7.4977   7.6416   7.6643   7.7575   7.9841   8.2048   8.4338
     8.5466   8.5645   8.6334   8.8363   8.9301   8.9667   9.0170   9.1724
     9.2730   9.3292   9.3806   9.4423   9.4856   9.7101   9.7193   9.8648
     9.9108   9.9427  10.1371  10.2684  10.3806  10.5231  10.6263  10.7880
    10.9851  11.1230  11.1550  11.2108  11.2867  11.4059  11.4552  11.4620
    11.5404  11.6691  11.7868  12.0482  12.0576  12.1164  12.2137  12.3374
    12.3497  12.3992  12.5808  12.6413  12.7585  12.8792  12.9048  12.9630
    13.0802  13.1977  13.3989  13.5462  13.6651  13.8760  13.9402  13.9914
    14.0386  14.1534  14.3251  14.3814  14.3874  14.5063  14.6443  14.7456
    14.9913  15.1730  15.2294  15.2540  15.3759  15.3766  15.4718  15.5782
    15.5793  15.6852  15.8986  15.9566  16.1786  16.2474  16.3152  16.3619
    16.4676  16.5324  16.5768  16.6903  16.8629  16.9711  17.0416  17.2945
    17.4113  17.4675  17.5321  17.6311  17.7276  17.7891  17.9585  17.9800
    18.0892  18.1796  18.1936  18.2473  18.3917  18.5369  18.5718  18.6351
    18.8071  19.0582  19.1289  19.1531  19.2179  19.3351  19.4033  19.5567
    19.5839  19.7004  19.8151  19.9055  20.0408  20.0525  20.0685  20.1733
    20.2216  20.2445  20.4396  20.5473  20.5527  20.7975  20.8960  20.9056
    21.0192  21.1059  21.1714  21.4111  21.4676  21.4904  21.5505  21.6481
    21.7586  21.8168  21.9567  22.1768  22.2222  22.2578  22.3154  22.3555
    22.5125  22.5807  22.5827  22.6956  22.7723  22.7745  22.8218  22.9991
    23.1352  23.1514  23.2539  23.2775  23.3734  23.5058  23.5782  23.5898
    23.6990  23.8552  23.9225  24.0618  24.0621  24.2885  24.3522  24.4093
    24.4698  24.4802  24.5254  24.6390  24.7617  24.8398  24.9670  25.0010
    25.0391  25.1008  25.2485  25.3439  25.3916  25.4693  25.5798  25.6945
    25.7056  25.7557  26.0259  26.0460  26.0906  26.2632  26.4020  26.4249
    26.5113  26.6036  26.6400  26.8195  26.8394  26.9706  27.0175  27.0641
    27.1550  27.2096  27.3399  27.3542  27.4170  27.5446  27.5995  27.6822
    27.7501  27.8741  27.9899  28.0295  28.2309  28.2497  28.2845  28.3655
    28.4428  28.5414  28.5906  28.7062  28.8551  28.9078  29.0143  29.0696
    29.1339  29.1646  29.2345  29.3913  29.5190  29.5782  29.5977  29.7856
    29.7863  29.8835

          k = 0.7397-0.1833-0.4472 ( 34406 PWs)   bands (ev):

   -18.0895 -18.0810 -17.7673 -17.7538 -13.9919 -13.9674 -13.9319 -13.9307
   -13.9048 -13.8996 -13.8981 -13.8938 -13.8718 -13.8698 -12.5904 -12.5700
   -11.7586 -11.5759 -11.4343 -11.3767 -11.3613 -11.3495 -11.1107 -11.0603
   -10.7563 -10.5875 -10.0456 -10.0423  -9.4133  -9.3942  -7.6627  -7.6161
    -7.2441  -7.1953  -6.2892  -6.2246  -5.7490  -5.6234  -5.1854  -5.0868
    -4.9279  -4.7325  -4.4328  -4.2973  -4.1279  -4.0581  -3.1664  -3.1438
    -3.0189  -2.9819  -2.8820  -2.8382  -2.7263  -2.6640  -2.3932  -2.3617
    -2.1861  -2.1633  -0.6138  -0.6020  -0.4724  -0.2524  -0.1320   0.0841
     0.1245   0.2039   0.3737   0.4723   0.5523   0.6264   0.6819   0.7428
     0.8430   0.8588   0.8918   0.9646   1.0151   1.1032   1.1134   1.1509
     1.4181   1.5344   5.7172   5.7910   5.9832   5.9876   6.3918   6.4352
     7.0651   7.5363   7.7245   7.7442   7.8412   8.1431   8.2296   8.4091
     8.5796   8.6371   8.7868   8.8675   8.9644   9.0388   9.1245   9.2290
     9.3254   9.4360   9.4443   9.5033   9.5543   9.6355   9.7421   9.8668
     9.9438  10.0305  10.1373  10.1812  10.2924  10.3748  10.4353  10.5688
    10.8252  10.8409  10.8655  11.0321  11.0783  11.0964  11.3997  11.4696
    11.5057  11.5207  11.5830  11.6489  11.7831  12.0784  12.1703  12.2848
    12.3315  12.3548  12.4012  12.4776  12.6979  12.9695  13.0317  13.1803
    13.3139  13.3417  13.4726  13.6066  13.8629  13.9325  13.9572  14.0932
    14.1858  14.3166  14.3631  14.5271  14.5335  14.7535  14.8083  14.8564
    15.0356  15.0710  15.2634  15.3763  15.4640  15.5617  15.6862  15.8236
    15.9277  16.0395  16.0541  16.1141  16.2099  16.2192  16.2923  16.4120
    16.5701  16.6205  16.7077  16.8361  16.9270  17.0001  17.0611  17.2204
    17.2836  17.3829  17.4451  17.5918  17.6118  17.6347  17.7404  17.8442
    17.9747  18.0328  18.2182  18.4716  18.5227  18.6814  18.7515  18.7606
    18.8331  18.9533  19.0035  19.0716  19.2957  19.3224  19.4978  19.5804
    19.6171  19.6171  19.7888  19.8357  19.9403  20.0004  20.2270  20.3270
    20.3959  20.5244  20.5277  20.6757  20.7790  20.7932  20.9306  20.9893
    21.0484  21.1591  21.2747  21.2930  21.4794  21.5456  21.6626  21.7666
    21.7937  21.8620  21.9850  21.9968  22.1377  22.2343  22.2413  22.3390
    22.5533  22.5824  22.6116  22.7717  22.8952  22.9567  23.0148  23.1403
    23.2125  23.2334  23.3126  23.3448  23.5152  23.5467  23.6940  23.7831
    23.8054  24.0271  24.0339  24.1952  24.2089  24.2351  24.4648  24.5516
    24.5626  24.6218  24.6588  24.8413  24.9651  24.9887  25.0586  25.0925
    25.1711  25.2092  25.3520  25.3774  25.4115  25.6177  25.6251  25.6829
    25.8195  25.8518  25.8892  25.9511  26.0144  26.1187  26.2000  26.2831
    26.3605  26.5154  26.5824  26.6275  26.7112  26.7798  26.9554  26.9650
    27.1488  27.2153  27.2908  27.4306  27.4574  27.4913  27.6286  27.6430
    27.7023  27.7678  27.8767  28.0261  28.1039  28.1303  28.2098  28.2203
    28.3822  28.4600  28.4816  28.6639  28.6751  28.9022  28.9382  29.0449
    29.1250  29.1966  29.3156  29.3871  29.3982  29.5091  29.5909  29.7308
    29.7865  29.8405

          k = 0.3698-0.3666 0.8945 ( 34420 PWs)   bands (ev):

   -18.0834 -18.0834 -17.7587 -17.7587 -13.9513 -13.9513 -13.9355 -13.9355
   -13.8993 -13.8993 -13.8992 -13.8992 -13.8707 -13.8707 -12.5799 -12.5799
   -11.6561 -11.6560 -11.4382 -11.4382 -11.3921 -11.3921 -11.0683 -11.0683
   -10.7052 -10.7052 -10.0667 -10.0667  -9.4290  -9.4290  -7.5450  -7.5449
    -7.1392  -7.1392  -6.2809  -6.2808  -5.6787  -5.6787  -5.3626  -5.3626
    -4.8739  -4.8738  -4.3675  -4.3675  -4.0958  -4.0958  -3.1850  -3.1850
    -2.9563  -2.9563  -2.9151  -2.9151  -2.6643  -2.6643  -2.3470  -2.3470
    -2.1197  -2.1197  -0.2817  -0.2817  -0.2324  -0.2324  -0.0338  -0.0338
     0.2143   0.2143   0.5106   0.5106   0.6041   0.6041   0.7450   0.7450
     0.7907   0.7907   0.9470   0.9470   1.0479   1.0479   1.1558   1.1558
     1.8367   1.8367   4.6059   4.6059   5.8244   5.8244   6.0187   6.0187
     7.5060   7.5060   8.0497   8.0497   8.2292   8.2292   8.3306   8.3306
     8.6114   8.6114   8.7469   8.7469   9.0812   9.0812   9.1276   9.1276
     9.2991   9.2991   9.5160   9.5160   9.5803   9.5803   9.8797   9.8797
    10.0342  10.0342  10.0868  10.0868  10.2111  10.2111  10.5303  10.5303
    10.7799  10.7799  10.8844  10.8844  11.2136  11.2136  11.2716  11.2716
    11.4155  11.4155  11.4716  11.4716  11.6954  11.6954  11.9663  11.9663
    12.1941  12.1941  12.5815  12.5815  12.8848  12.8848  13.0641  13.0641
    13.2512  13.2512  13.3871  13.3871  13.7377  13.7377  13.9688  13.9688
    14.1924  14.1924  14.4610  14.4610  14.7656  14.7656  14.9111  14.9111
    15.0054  15.0054  15.2911  15.2911  15.4802  15.4802  15.9755  15.9755
    16.1340  16.1340  16.2346  16.2346  16.4007  16.4007  16.5602  16.5602
    16.7889  16.7889  16.9745  16.9745  17.1955  17.1955  17.3814  17.3814
    17.4643  17.4643  17.6417  17.6417  17.7471  17.7471  17.9479  17.9479
    18.0576  18.0576  18.3639  18.3639  18.5567  18.5567  18.8700  18.8700
    18.9283  18.9283  19.1114  19.1114  19.2041  19.2041  19.4736  19.4736
    19.5221  19.5221  19.7786  19.7786  20.1289  20.1289  20.2785  20.2785
    20.4032  20.4032  20.7413  20.7413  20.8562  20.8562  21.1172  21.1172
    21.2065  21.2065  21.3184  21.3184  21.4237  21.4237  21.7572  21.7572
    21.7746  21.7746  22.0946  22.0946  22.2088  22.2088  22.2668  22.2668
    22.3724  22.3724  22.6875  22.6875  22.9464  22.9464  22.9604  22.9604
    23.2205  23.2205  23.4447  23.4447  23.5239  23.5239  23.7671  23.7671
    23.9467  23.9467  24.0349  24.0349  24.1602  24.1602  24.4401  24.4401
    24.6394  24.6394  24.7414  24.7414  25.0654  25.0654  25.1853  25.1853
    25.2423  25.2423  25.3262  25.3262  25.5124  25.5124  25.8727  25.8727
    25.9519  25.9519  26.0896  26.0896  26.1625  26.1625  26.4113  26.4113
    26.6010  26.6010  26.8239  26.8239  27.0648  27.0648  27.2059  27.2059
    27.2380  27.2380  27.3794  27.3794  27.4681  27.4681  27.5822  27.5822
    27.7862  27.7862  27.8525  27.8525  28.0836  28.0836  28.1166  28.1166
    28.3080  28.3080  28.5161  28.5161  28.8324  28.8324  28.8963  28.8963
    28.9843  28.9843  29.2098  29.2098  29.2810  29.2810  29.3755  29.3755
    29.6166  29.6166

          k = 0.7397-0.3666 0.0000 ( 34346 PWs)   bands (ev):

   -18.0940 -18.0803 -17.7709 -17.7538 -14.0213 -13.9881 -13.9310 -13.9287
   -13.9073 -13.8996 -13.8974 -13.8915 -13.8723 -13.8694 -12.6041 -12.5587
   -11.7903 -11.5675 -11.4275 -11.3507 -11.3177 -11.2945 -11.1157 -11.0606
   -10.7332 -10.5784 -10.0632  -9.9644  -9.3894  -9.3595  -7.7615  -7.7036
    -7.3441  -7.2649  -6.3007  -6.1725  -5.7129  -5.6604  -4.9285  -4.8969
    -4.7561  -4.7299  -4.3816  -4.3301  -4.1203  -4.0394  -3.2139  -3.0568
    -3.0098  -2.9443  -2.8808  -2.8604  -2.8148  -2.6133  -2.4314  -2.3926
    -2.2574  -2.1992  -1.3808  -0.9060  -0.7399  -0.6241  -0.2834   0.2220
     0.2788   0.3514   0.5580   0.5656   0.5846   0.6211   0.6567   0.6865
     0.7724   0.8598   0.9121   1.0191   1.0268   1.0697   1.1352   1.1813
     1.3519   1.3675   5.9317   5.9319   6.2066   6.2136   6.8511   7.2641
     7.2836   7.5001   7.6386   7.6447   7.9226   8.1902   8.3401   8.4168
     8.4789   8.5331   8.5571   8.6199   8.8921   8.9475   8.9957   9.2253
     9.3125   9.3358   9.4506   9.4734   9.5992   9.7039   9.7353   9.7971
     9.8649   9.9229  10.0231  10.2187  10.3110  10.4829  10.7959  10.9490
    11.0047  11.0585  11.1152  11.2910  11.3008  11.4380  11.5709  11.5833
    11.6047  11.7024  11.7306  11.8673  12.0455  12.0773  12.1204  12.2046
    12.4233  12.4810  12.5050  12.6561  12.8587  12.9290  13.0503  13.1654
    13.2061  13.2121  13.2567  13.4449  13.4986  13.6590  13.7049  13.8375
    13.8964  14.0850  14.0990  14.3417  14.4152  14.4491  14.7771  14.7943
    14.9127  15.0178  15.0224  15.3011  15.3324  15.3497  15.5079  15.5778
    15.6882  15.7000  15.8474  15.8849  16.2696  16.4811  16.4931  16.6167
    16.7554  16.7871  16.8315  16.9517  17.0504  17.0644  17.1369  17.2357
    17.3113  17.3736  17.5737  17.5791  17.6078  17.6544  18.0254  18.0723
    18.1645  18.2761  18.3418  18.3556  18.4870  18.4934  18.5969  18.6622
    18.8518  18.8658  18.9454  18.9544  19.1385  19.3112  19.3407  19.5533
    19.6189  19.6577  19.6719  19.7183  20.0113  20.1499  20.1583  20.1652
    20.1884  20.2974  20.3606  20.6029  20.6158  20.6679  20.7845  20.8975
    21.1846  21.2623  21.2827  21.2919  21.3974  21.5084  21.5190  21.6695
    21.7834  21.7922  21.8795  22.0365  22.1270  22.1507  22.1586  22.2182
    22.2541  22.3235  22.4626  22.6744  22.6924  22.7493  22.8670  22.8865
    23.0824  23.3157  23.4165  23.4491  23.4537  23.5324  23.6154  23.6653
    23.6917  23.7944  23.8313  23.9191  23.9883  24.0957  24.1272  24.2735
    24.2818  24.3695  24.6212  24.6966  24.7276  24.8088  24.8384  24.8456
    24.9240  25.1509  25.1842  25.2101  25.4120  25.6855  25.7877  25.7945
    25.8809  25.9939  26.1446  26.2094  26.2192  26.3018  26.3392  26.4458
    26.6028  26.6126  26.6150  26.6902  26.8951  27.0215  27.0646  27.0753
    27.1025  27.4665  27.5188  27.5626  27.7546  27.7726  27.7941  27.8331
    27.9864  28.0061  28.0200  28.0670  28.2233  28.3156  28.3344  28.5378
    28.6765  28.7464  28.8079  28.8221  28.8735  28.8912  29.0945  29.1008
    29.1471  29.1639  29.2552  29.2922  29.3192  29.4216  29.5288  29.5439
    29.5790  29.7353

          k = 0.7397-0.0000 0.0000 ( 34422 PWs)   bands (ev):

   -18.0931 -18.0811 -17.7721 -17.7527 -14.0213 -13.9880 -13.9310 -13.9287
   -13.9073 -13.8996 -13.8974 -13.8915 -13.8723 -13.8694 -12.5948 -12.5662
   -11.7960 -11.5596 -11.4240 -11.3525 -11.3211 -11.2938 -11.1316 -11.0621
   -10.7496 -10.5361 -10.0265 -10.0103  -9.3900  -9.3613  -7.7665  -7.6997
    -7.3371  -7.2708  -6.2741  -6.1887  -5.7806  -5.6024  -4.9753  -4.9266
    -4.7379  -4.6558  -4.4480  -4.2716  -4.1411  -4.0267  -3.1401  -3.0663
    -2.9858  -2.9704  -2.9176  -2.9156  -2.8222  -2.5804  -2.4155  -2.4058
    -2.2251  -2.2194  -1.4348  -0.8679  -0.7412  -0.6071  -0.3186   0.2173
     0.2352   0.4110   0.5434   0.5701   0.5840   0.6445   0.6964   0.7772
     0.7807   0.7896   0.8994   1.0392   1.0445   1.0520   1.1770   1.1859
     1.2208   1.3543   6.0539   6.1170   6.1586   6.1629   6.5906   7.4015
     7.5161   7.5413   7.5772   7.6685   7.7378   7.8270   7.9816   8.4012
     8.5382   8.6873   8.7416   8.8132   8.8778   9.0421   9.0567   9.1097
     9.2943   9.3083   9.4287   9.5003   9.5643   9.6749   9.8096   9.9677
     9.9722  10.0261  10.1086  10.1768  10.3458  10.4218  10.5947  10.6457
    10.7151  11.1567  11.1838  11.1899  11.2787  11.3035  11.4500  11.4977
    11.7409  11.7724  11.8494  11.8904  11.9726  12.0789  12.2588  12.2645
    12.2956  12.4931  12.5575  12.6556  12.8465  12.9061  12.9244  12.9722
    13.0865  13.3807  13.4015  13.4282  13.7699  13.9186  14.0298  14.1349
    14.2678  14.2900  14.3866  14.4203  14.5728  14.6249  14.7455  14.7726
    14.8020  15.0351  15.2438  15.2480  15.2810  15.3442  15.4658  15.4679
    15.6930  15.8064  15.8158  15.8686  15.9189  16.0049  16.0680  16.1837
    16.3846  16.5110  16.5717  16.6090  16.6874  16.9586  16.9885  17.1144
    17.2269  17.4511  17.4708  17.6634  17.7952  17.8632  17.9893  18.1464
    18.1540  18.2320  18.3105  18.3277  18.3437  18.3826  18.3948  18.6516
    18.7907  18.9590  19.2189  19.2369  19.3117  19.3726  19.4536  19.6367
    19.6986  19.8537  19.9008  19.9113  20.0387  20.1334  20.1640  20.1981
    20.2783  20.2807  20.3163  20.4045  20.4093  20.6507  20.7908  20.8308
    20.9076  21.0416  21.2965  21.3698  21.4439  21.5978  21.6344  21.8874
    22.0136  22.0193  22.1904  22.1908  22.2244  22.3749  22.3868  22.4390
    22.4545  22.5191  22.5439  22.5463  22.6224  22.6776  22.7811  22.7880
    23.2138  23.2502  23.2754  23.3428  23.3512  23.6422  23.6524  23.8047
    23.8248  23.8309  24.0097  24.0534  24.1265  24.1555  24.2010  24.2386
    24.4202  24.4873  24.8709  24.9392  24.9446  24.9827  25.0143  25.1235
    25.1775  25.2342  25.2416  25.2646  25.2913  25.5088  25.6581  25.8145
    25.8181  25.8353  25.8645  25.9675  26.0209  26.1160  26.1795  26.4377
    26.4933  26.5202  26.5776  26.5840  26.8511  26.8790  26.8990  26.9690
    27.0356  27.1176  27.1847  27.3124  27.3577  27.3954  27.4720  27.6200
    27.7057  27.7487  28.0516  28.0728  28.1138  28.1176  28.2823  28.4330
    28.4857  28.5655  28.5737  28.6292  28.7407  28.8052  29.0130  29.0234
    29.0926  29.1228  29.1413  29.2812  29.3571  29.3712  29.4058  29.5376
    29.6479  29.7163

     Writing all to output data dir ./scf1.save/
 
     init_run     :      0.50s CPU      0.58s WALL (       1 calls)
     electrons    :    265.35s CPU    268.00s WALL (       1 calls)

     Called by init_run:
     wfcinit      :      0.00s CPU      0.01s WALL (       1 calls)
     wfcinit:atom :      0.02s CPU      0.02s WALL (       9 calls)
     wfcinit:wfcr :      3.47s CPU      3.55s WALL (       9 calls)
     potinit      :      0.04s CPU      0.08s WALL (       1 calls)
     hinit0       :      0.32s CPU      0.35s WALL (       1 calls)

     Called by electrons:
     c_bands      :    265.35s CPU    268.00s WALL (       1 calls)
     v_of_rho     :      0.02s CPU      0.03s WALL (       1 calls)
     v_h          :      0.00s CPU      0.00s WALL (       1 calls)
     v_xc         :      0.02s CPU      0.02s WALL (       1 calls)

     Called by c_bands:
     init_us_2    :      0.03s CPU      0.04s WALL (       9 calls)
     init_us_2:cp :      0.03s CPU      0.04s WALL (       9 calls)
     cegterg      :    257.23s CPU    259.69s WALL (      36 calls)

     Called by sum_band:

     Called by *egterg:
     cdiaghg      :    118.37s CPU    118.99s WALL (     619 calls)
     cegterg:over :     25.04s CPU     25.56s WALL (     610 calls)
     cegterg:upda :     11.27s CPU     11.36s WALL (     610 calls)
     cegterg:last :     22.59s CPU     22.80s WALL (     279 calls)
     h_psi        :     78.31s CPU     79.29s WALL (     655 calls)
     g_psi        :      0.45s CPU      0.46s WALL (     610 calls)

     Called by h_psi:
     h_psi:calbec :      9.53s CPU      9.74s WALL (     655 calls)
     vloc_psi     :     59.36s CPU     60.07s WALL (     655 calls)
     add_vuspsi   :      8.70s CPU      8.75s WALL (     655 calls)

     General routines
     calbec       :      9.53s CPU      9.74s WALL (     655 calls)
     fft          :      0.01s CPU      0.03s WALL (      11 calls)
     fftw         :     51.82s CPU     52.43s WALL (  185688 calls)
     davcio       :      0.00s CPU      0.11s WALL (      18 calls)
 
     Parallel routines
 
     PWSCF        :   4m26.96s CPU   4m32.47s WALL

 
   This run was terminated on:  16: 4: 0  30Aug2023            

=------------------------------------------------------------------------------=
   JOB DONE.
=------------------------------------------------------------------------------=
