ANIMSTEPS  150
CRYSTAL
PRIMVEC
    6.951744395    7.153406229    2.965590711
    6.951744395   -7.153406229    2.965590711
    6.951744395   -7.153406229   -2.965590711
PRIMCOORD    1
     50   1
   Pb    15.50510  -7.15341   1.48280  -0.00031  -0.00002   0.01414
   Pb     5.35014   0.00000   1.48280  -0.00031  -0.00002   0.01414
   Br     5.51552   2.95267   1.48280  -0.00031  -0.00002   0.01414
   Br     5.51552  -2.95267   1.48280  -0.00031  -0.00002   0.01414
   Br    15.33972 -10.10607   1.48280  -0.00031  -0.00002   0.01414
   Br    15.33972  -4.20074   1.48280  -0.00031  -0.00002   0.01414
   Br    12.36557  -7.15341   1.48280  -0.00031  -0.00002   0.01414
   Br     8.48966   0.00000   1.48280  -0.00031  -0.00002   0.01414
   Br    11.39976   0.00000   4.44839  -0.00031  -0.00002   0.01414
   Br     9.45548  -7.15341  -1.48280  -0.00031  -0.00002   0.01414
   C     10.74048  -2.89271   1.48280  -0.00031  -0.00002   0.01414
   C     10.74048   2.89271   1.48280  -0.00031  -0.00002   0.01414
   C     10.11475  -4.26069   1.48280  -0.00031  -0.00002   0.01414
   C     10.11475 -10.04612   1.48280  -0.00031  -0.00002   0.01414
   C     12.86001  -1.70030   1.48280  -0.00031  -0.00002   0.01414
   C      5.90827  -5.45311  -1.48280  -0.00031  -0.00002   0.01414
   C      7.99522  -5.45311   1.48280  -0.00031  -0.00002   0.01414
   C     14.94696  -1.70030   4.44839  -0.00031  -0.00002   0.01414
   H     10.40460  -4.83614   0.58405  -0.00031  -0.00002   0.01414
   H      3.45285  -2.31727  -0.58405  -0.00031  -0.00002   0.01414
   H     10.45063  -2.31727   0.58405  -0.00031  -0.00002   0.01414
   H     10.45063   2.31727   2.38154  -0.00031  -0.00002   0.01414
   H     10.45063  -2.31727   2.38154  -0.00031  -0.00002   0.01414
   H     17.40238  -4.83614   3.54964  -0.00031  -0.00002   0.01414
   H     10.40460  -4.83614   2.38154  -0.00031  -0.00002   0.01414
   H     10.40460  -9.47068   0.58405  -0.00031  -0.00002   0.01414
   H     13.95197  -1.84017   1.48280  -0.00031  -0.00002   0.01414
   H      7.00022  -5.31323  -1.48280  -0.00031  -0.00002   0.01414
   H      6.90327  -5.31323   1.48280  -0.00031  -0.00002   0.01414
   H     13.85501  -1.84017   4.44839  -0.00031  -0.00002   0.01414
   H      8.31735  -6.00047   2.38537  -0.00031  -0.00002   0.01414
   H      8.31735  -8.30634   0.58022  -0.00031  -0.00002   0.01414
   H     12.53788  -1.15294   2.38537  -0.00031  -0.00002   0.01414
   H     12.53788   1.15294   0.58022  -0.00031  -0.00002   0.01414
   H     12.53788  -1.15294   0.58022  -0.00031  -0.00002   0.01414
   H     12.53788   1.15294   2.38537  -0.00031  -0.00002   0.01414
   H      8.31735  -6.00047   0.58022  -0.00031  -0.00002   0.01414
   H      8.31735  -8.30634   2.38537  -0.00031  -0.00002   0.01414
   H      8.35493  -3.59723   0.62785  -0.00031  -0.00002   0.01414
   H      8.35493   3.59723   2.33774  -0.00031  -0.00002   0.01414
   H     12.50030  -3.55618   0.62785  -0.00031  -0.00002   0.01414
   H      5.54856  -3.59723  -0.62785  -0.00031  -0.00002   0.01414
   H     12.50030  -3.55618   2.33774  -0.00031  -0.00002   0.01414
   H     12.50030 -10.75064   0.62785  -0.00031  -0.00002   0.01414
   H      8.35493  -3.59723   2.33774  -0.00031  -0.00002   0.01414
   H     15.30668  -3.55618   3.59344  -0.00031  -0.00002   0.01414
   N     12.20352  -3.01305   1.48280  -0.00031  -0.00002   0.01414
   N      5.25178  -4.14036  -1.48280  -0.00031  -0.00002   0.01414
   N      8.65171  -4.14036   1.48280  -0.00031  -0.00002   0.01414
   N     15.60345  -3.01305   4.44839  -0.00031  -0.00002   0.01414
PRIMCOORD    2
     50   1
   Pb    15.50510  -7.15341   1.48280   0.00773  -0.01184   0.00015
   Pb     5.35014   0.00000   1.48280   0.00773  -0.01184   0.00015
   Br     5.51552   2.95267   1.48280   0.00773  -0.01184   0.00015
   Br     5.51552  -2.95267   1.48280   0.00773  -0.01184   0.00015
   Br    15.33972 -10.10607   1.48280   0.00773  -0.01184   0.00015
   Br    15.33972  -4.20074   1.48280   0.00773  -0.01184   0.00015
   Br    12.36557  -7.15341   1.48280   0.00773  -0.01184   0.00015
   Br     8.48966   0.00000   1.48280   0.00773  -0.01184   0.00015
   Br    11.39976   0.00000   4.44839   0.00773  -0.01184   0.00015
   Br     9.45548  -7.15341  -1.48280   0.00773  -0.01184   0.00015
   C     10.74048  -2.89271   1.48280   0.00773  -0.01184   0.00015
   C     10.74048   2.89271   1.48280   0.00773  -0.01184   0.00015
   C     10.11475  -4.26069   1.48280   0.00773  -0.01184   0.00015
   C     10.11475 -10.04612   1.48280   0.00773  -0.01184   0.00015
   C     12.86001  -1.70030   1.48280   0.00773  -0.01184   0.00015
   C      5.90827  -5.45311  -1.48280   0.00773  -0.01184   0.00015
   C      7.99522  -5.45311   1.48280   0.00773  -0.01184   0.00015
   C     14.94696  -1.70030   4.44839   0.00773  -0.01184   0.00015
   H     10.40460  -4.83614   0.58405   0.00773  -0.01184   0.00015
   H      3.45285  -2.31727  -0.58405   0.00773  -0.01184   0.00015
   H     10.45063  -2.31727   0.58405   0.00773  -0.01184   0.00015
   H     10.45063   2.31727   2.38154   0.00773  -0.01184   0.00015
   H     10.45063  -2.31727   2.38154   0.00773  -0.01184   0.00015
   H     17.40238  -4.83614   3.54964   0.00773  -0.01184   0.00015
   H     10.40460  -4.83614   2.38154   0.00773  -0.01184   0.00015
   H     10.40460  -9.47068   0.58405   0.00773  -0.01184   0.00015
   H     13.95197  -1.84017   1.48280   0.00773  -0.01184   0.00015
   H      7.00022  -5.31323  -1.48280   0.00773  -0.01184   0.00015
   H      6.90327  -5.31323   1.48280   0.00773  -0.01184   0.00015
   H     13.85501  -1.84017   4.44839   0.00773  -0.01184   0.00015
   H      8.31735  -6.00047   2.38537   0.00773  -0.01184   0.00015
   H      8.31735  -8.30634   0.58022   0.00773  -0.01184   0.00015
   H     12.53788  -1.15294   2.38537   0.00773  -0.01184   0.00015
   H     12.53788   1.15294   0.58022   0.00773  -0.01184   0.00015
   H     12.53788  -1.15294   0.58022   0.00773  -0.01184   0.00015
   H     12.53788   1.15294   2.38537   0.00773  -0.01184   0.00015
   H      8.31735  -6.00047   0.58022   0.00773  -0.01184   0.00015
   H      8.31735  -8.30634   2.38537   0.00773  -0.01184   0.00015
   H      8.35493  -3.59723   0.62785   0.00773  -0.01184   0.00015
   H      8.35493   3.59723   2.33774   0.00773  -0.01184   0.00015
   H     12.50030  -3.55618   0.62785   0.00773  -0.01184   0.00015
   H      5.54856  -3.59723  -0.62785   0.00773  -0.01184   0.00015
   H     12.50030  -3.55618   2.33774   0.00773  -0.01184   0.00015
   H     12.50030 -10.75064   0.62785   0.00773  -0.01184   0.00015
   H      8.35493  -3.59723   2.33774   0.00773  -0.01184   0.00015
   H     15.30668  -3.55618   3.59344   0.00773  -0.01184   0.00015
   N     12.20352  -3.01305   1.48280   0.00773  -0.01184   0.00015
   N      5.25178  -4.14036  -1.48280   0.00773  -0.01184   0.00015
   N      8.65171  -4.14036   1.48280   0.00773  -0.01184   0.00015
   N     15.60345  -3.01305   4.44839   0.00773  -0.01184   0.00015
PRIMCOORD    3
     50   1
   Pb    15.50510  -7.15341   1.48280   0.01184   0.00773   0.00027
   Pb     5.35014   0.00000   1.48280   0.01184   0.00773   0.00027
   Br     5.51552   2.95267   1.48280   0.01184   0.00773   0.00027
   Br     5.51552  -2.95267   1.48280   0.01184   0.00773   0.00027
   Br    15.33972 -10.10607   1.48280   0.01184   0.00773   0.00027
   Br    15.33972  -4.20074   1.48280   0.01184   0.00773   0.00027
   Br    12.36557  -7.15341   1.48280   0.01184   0.00773   0.00027
   Br     8.48966   0.00000   1.48280   0.01184   0.00773   0.00027
   Br    11.39976   0.00000   4.44839   0.01184   0.00773   0.00027
   Br     9.45548  -7.15341  -1.48280   0.01184   0.00773   0.00027
   C     10.74048  -2.89271   1.48280   0.01184   0.00773   0.00027
   C     10.74048   2.89271   1.48280   0.01184   0.00773   0.00027
   C     10.11475  -4.26069   1.48280   0.01184   0.00773   0.00027
   C     10.11475 -10.04612   1.48280   0.01184   0.00773   0.00027
   C     12.86001  -1.70030   1.48280   0.01184   0.00773   0.00027
   C      5.90827  -5.45311  -1.48280   0.01184   0.00773   0.00027
   C      7.99522  -5.45311   1.48280   0.01184   0.00773   0.00027
   C     14.94696  -1.70030   4.44839   0.01184   0.00773   0.00027
   H     10.40460  -4.83614   0.58405   0.01184   0.00773   0.00027
   H      3.45285  -2.31727  -0.58405   0.01184   0.00773   0.00027
   H     10.45063  -2.31727   0.58405   0.01184   0.00773   0.00027
   H     10.45063   2.31727   2.38154   0.01184   0.00773   0.00027
   H     10.45063  -2.31727   2.38154   0.01184   0.00773   0.00027
   H     17.40238  -4.83614   3.54964   0.01184   0.00773   0.00027
   H     10.40460  -4.83614   2.38154   0.01184   0.00773   0.00027
   H     10.40460  -9.47068   0.58405   0.01184   0.00773   0.00027
   H     13.95197  -1.84017   1.48280   0.01184   0.00773   0.00027
   H      7.00022  -5.31323  -1.48280   0.01184   0.00773   0.00027
   H      6.90327  -5.31323   1.48280   0.01184   0.00773   0.00027
   H     13.85501  -1.84017   4.44839   0.01184   0.00773   0.00027
   H      8.31735  -6.00047   2.38537   0.01184   0.00773   0.00027
   H      8.31735  -8.30634   0.58022   0.01184   0.00773   0.00027
   H     12.53788  -1.15294   2.38537   0.01184   0.00773   0.00027
   H     12.53788   1.15294   0.58022   0.01184   0.00773   0.00027
   H     12.53788  -1.15294   0.58022   0.01184   0.00773   0.00027
   H     12.53788   1.15294   2.38537   0.01184   0.00773   0.00027
   H      8.31735  -6.00047   0.58022   0.01184   0.00773   0.00027
   H      8.31735  -8.30634   2.38537   0.01184   0.00773   0.00027
   H      8.35493  -3.59723   0.62785   0.01184   0.00773   0.00027
   H      8.35493   3.59723   2.33774   0.01184   0.00773   0.00027
   H     12.50030  -3.55618   0.62785   0.01184   0.00773   0.00027
   H      5.54856  -3.59723  -0.62785   0.01184   0.00773   0.00027
   H     12.50030  -3.55618   2.33774   0.01184   0.00773   0.00027
   H     12.50030 -10.75064   0.62785   0.01184   0.00773   0.00027
   H      8.35493  -3.59723   2.33774   0.01184   0.00773   0.00027
   H     15.30668  -3.55618   3.59344   0.01184   0.00773   0.00027
   N     12.20352  -3.01305   1.48280   0.01184   0.00773   0.00027
   N      5.25178  -4.14036  -1.48280   0.01184   0.00773   0.00027
   N      8.65171  -4.14036   1.48280   0.01184   0.00773   0.00027
   N     15.60345  -3.01305   4.44839   0.01184   0.00773   0.00027
PRIMCOORD    4
     50   1
   Pb    15.50510  -7.15341   1.48280   0.00000  -0.00477   0.00000
   Pb     5.35014   0.00000   1.48280   0.00000   0.00477   0.00000
   Br     5.51552   2.95267   1.48280   0.01890   0.00184  -0.00000
   Br     5.51552  -2.95267   1.48280  -0.01890   0.00184  -0.00000
   Br    15.33972 -10.10607   1.48280  -0.01890  -0.00184  -0.00000
   Br    15.33972  -4.20074   1.48280   0.01890  -0.00184  -0.00000
   Br    12.36557  -7.15341   1.48280   0.00000   0.01603   0.00000
   Br     8.48966   0.00000   1.48280   0.00000  -0.01603   0.00000
   Br    11.39976   0.00000   4.44839   0.00000  -0.03200  -0.00000
   Br     9.45548  -7.15341  -1.48280  -0.00000   0.03200  -0.00000
   C     10.74048  -2.89271   1.48280   0.00365  -0.00163  -0.00000
   C     10.74048   2.89271   1.48280  -0.00365  -0.00163  -0.00000
   C     10.11475  -4.26069   1.48280  -0.00365   0.00163  -0.00000
   C     10.11475 -10.04612   1.48280   0.00365   0.00163  -0.00000
   C     12.86001  -1.70030   1.48280   0.00942  -0.01180  -0.00000
   C      5.90827  -5.45311  -1.48280  -0.00942  -0.01180  -0.00000
   C      7.99522  -5.45311   1.48280  -0.00942   0.01180  -0.00000
   C     14.94696  -1.70030   4.44839   0.00942   0.01180  -0.00000
   H     10.40460  -4.83614   0.58405  -0.00694  -0.00036   0.00016
   H      3.45285  -2.31727  -0.58405   0.00694  -0.00036   0.00016
   H     10.45063  -2.31727   0.58405   0.00694   0.00036   0.00016
   H     10.45063   2.31727   2.38154  -0.00694   0.00036   0.00016
   H     10.45063  -2.31727   2.38154   0.00694   0.00036  -0.00016
   H     17.40238  -4.83614   3.54964  -0.00694   0.00036  -0.00016
   H     10.40460  -4.83614   2.38154  -0.00694  -0.00036  -0.00016
   H     10.40460  -9.47068   0.58405   0.00694  -0.00036  -0.00016
   H     13.95197  -1.84017   1.48280   0.00865  -0.01721  -0.00000
   H      7.00022  -5.31323  -1.48280  -0.00865  -0.01721  -0.00000
   H      6.90327  -5.31323   1.48280  -0.00865   0.01721  -0.00000
   H     13.85501  -1.84017   4.44839   0.00865   0.01721  -0.00000
   H      8.31735  -6.00047   2.38537  -0.01189   0.01055   0.00005
   H      8.31735  -8.30634   0.58022   0.01189   0.01055   0.00005
   H     12.53788  -1.15294   2.38537   0.01189  -0.01055   0.00005
   H     12.53788   1.15294   0.58022  -0.01189  -0.01055   0.00005
   H     12.53788  -1.15294   0.58022   0.01189  -0.01055  -0.00005
   H     12.53788   1.15294   2.38537  -0.01189  -0.01055  -0.00005
   H      8.31735  -6.00047   0.58022  -0.01189   0.01055  -0.00005
   H      8.31735  -8.30634   2.38537   0.01189   0.01055  -0.00005
   H      8.35493  -3.59723   0.62785  -0.00108   0.00954  -0.00027
   H      8.35493   3.59723   2.33774   0.00108   0.00954  -0.00027
   H     12.50030  -3.55618   0.62785   0.00108  -0.00954  -0.00027
   H      5.54856  -3.59723  -0.62785  -0.00108  -0.00954  -0.00027
   H     12.50030  -3.55618   2.33774   0.00108  -0.00954   0.00027
   H     12.50030 -10.75064   0.62785  -0.00108  -0.00954   0.00027
   H      8.35493  -3.59723   2.33774  -0.00108   0.00954   0.00027
   H     15.30668  -3.55618   3.59344   0.00108   0.00954   0.00027
   N     12.20352  -3.01305   1.48280   0.00321  -0.00874  -0.00000
   N      5.25178  -4.14036  -1.48280  -0.00321  -0.00874  -0.00000
   N      8.65171  -4.14036   1.48280  -0.00321   0.00874  -0.00000
   N     15.60345  -3.01305   4.44839   0.00321   0.00874  -0.00000
PRIMCOORD    5
     50   1
   Pb    15.50510  -7.15341   1.48280  -0.00000  -0.00000  -0.01480
   Pb     5.35014   0.00000   1.48280  -0.00000   0.00000  -0.01480
   Br     5.51552   2.95267   1.48280   0.00000   0.00000   0.01486
   Br     5.51552  -2.95267   1.48280  -0.00000   0.00000   0.01486
   Br    15.33972 -10.10607   1.48280  -0.00000  -0.00000   0.01486
   Br    15.33972  -4.20074   1.48280   0.00000   0.00000   0.01486
   Br    12.36557  -7.15341   1.48280  -0.00000   0.00000  -0.01651
   Br     8.48966   0.00000   1.48280  -0.00000  -0.00000  -0.01651
   Br    11.39976   0.00000   4.44839  -0.00000  -0.00000   0.00941
   Br     9.45548  -7.15341  -1.48280  -0.00000   0.00000   0.00941
   C     10.74048  -2.89271   1.48280  -0.00000  -0.00000   0.01617
   C     10.74048   2.89271   1.48280   0.00000  -0.00000   0.01617
   C     10.11475  -4.26069   1.48280  -0.00000  -0.00000   0.01617
   C     10.11475 -10.04612   1.48280   0.00000  -0.00000   0.01617
   C     12.86001  -1.70030   1.48280  -0.00000  -0.00000   0.01115
   C      5.90827  -5.45311  -1.48280   0.00000  -0.00000   0.01115
   C      7.99522  -5.45311   1.48280  -0.00000   0.00000   0.01115
   C     14.94696  -1.70030   4.44839   0.00000  -0.00000   0.01115
   H     10.40460  -4.83614   0.58405   0.00125  -0.00059   0.01694
   H      3.45285  -2.31727  -0.58405  -0.00125  -0.00059   0.01694
   H     10.45063  -2.31727   0.58405  -0.00125   0.00059   0.01694
   H     10.45063   2.31727   2.38154   0.00125   0.00059   0.01694
   H     10.45063  -2.31727   2.38154   0.00125  -0.00059   0.01694
   H     17.40238  -4.83614   3.54964  -0.00125  -0.00059   0.01694
   H     10.40460  -4.83614   2.38154  -0.00125   0.00059   0.01694
   H     10.40460  -9.47068   0.58405   0.00125   0.00059   0.01694
   H     13.95197  -1.84017   1.48280  -0.00000  -0.00000   0.01046
   H      7.00022  -5.31323  -1.48280   0.00000  -0.00000   0.01046
   H      6.90327  -5.31323   1.48280  -0.00000   0.00000   0.01046
   H     13.85501  -1.84017   4.44839   0.00000   0.00000   0.01046
   H      8.31735  -6.00047   2.38537  -0.00086  -0.00184   0.01033
   H      8.31735  -8.30634   0.58022   0.00086  -0.00184   0.01033
   H     12.53788  -1.15294   2.38537   0.00086   0.00184   0.01033
   H     12.53788   1.15294   0.58022  -0.00086   0.00184   0.01033
   H     12.53788  -1.15294   0.58022  -0.00086  -0.00184   0.01033
   H     12.53788   1.15294   2.38537   0.00086  -0.00184   0.01033
   H      8.31735  -6.00047   0.58022   0.00086   0.00184   0.01033
   H      8.31735  -8.30634   2.38537  -0.00086   0.00184   0.01033
   H      8.35493  -3.59723   0.62785   0.00086   0.00165   0.01540
   H      8.35493   3.59723   2.33774  -0.00086   0.00165   0.01540
   H     12.50030  -3.55618   0.62785  -0.00086  -0.00165   0.01540
   H      5.54856  -3.59723  -0.62785   0.00086  -0.00165   0.01540
   H     12.50030  -3.55618   2.33774   0.00086   0.00165   0.01540
   H     12.50030 -10.75064   0.62785  -0.00086   0.00165   0.01540
   H      8.35493  -3.59723   2.33774  -0.00086  -0.00165   0.01540
   H     15.30668  -3.55618   3.59344   0.00086  -0.00165   0.01540
   N     12.20352  -3.01305   1.48280  -0.00000  -0.00000   0.01460
   N      5.25178  -4.14036  -1.48280   0.00000  -0.00000   0.01460
   N      8.65171  -4.14036   1.48280  -0.00000  -0.00000   0.01460
   N     15.60345  -3.01305   4.44839   0.00000  -0.00000   0.01460
PRIMCOORD    6
     50   1
   Pb    15.50510  -7.15341   1.48280   0.00000  -0.00000   0.04583
   Pb     5.35014   0.00000   1.48280   0.00000  -0.00000  -0.04583
   Br     5.51552   2.95267   1.48280  -0.00000  -0.00000  -0.00656
   Br     5.51552  -2.95267   1.48280   0.00000  -0.00000  -0.00656
   Br    15.33972 -10.10607   1.48280   0.00000  -0.00000   0.00656
   Br    15.33972  -4.20074   1.48280  -0.00000  -0.00000   0.00656
   Br    12.36557  -7.15341   1.48280   0.00000  -0.00000  -0.05006
   Br     8.48966   0.00000   1.48280   0.00000   0.00000   0.05006
   Br    11.39976   0.00000   4.44839   0.00000   0.00000   0.00524
   Br     9.45548  -7.15341  -1.48280   0.00000  -0.00000  -0.00524
   C     10.74048  -2.89271   1.48280  -0.00000  -0.00000   0.00047
   C     10.74048   2.89271   1.48280  -0.00000   0.00000   0.00047
   C     10.11475  -4.26069   1.48280  -0.00000  -0.00000  -0.00047
   C     10.11475 -10.04612   1.48280  -0.00000   0.00000  -0.00047
   C     12.86001  -1.70030   1.48280  -0.00000   0.00000  -0.00041
   C      5.90827  -5.45311  -1.48280  -0.00000   0.00000  -0.00041
   C      7.99522  -5.45311   1.48280  -0.00000  -0.00000   0.00041
   C     14.94696  -1.70030   4.44839  -0.00000   0.00000   0.00041
   H     10.40460  -4.83614   0.58405  -0.00223   0.00125  -0.00203
   H      3.45285  -2.31727  -0.58405   0.00223   0.00125  -0.00203
   H     10.45063  -2.31727   0.58405  -0.00223   0.00125   0.00203
   H     10.45063   2.31727   2.38154   0.00223   0.00125   0.00203
   H     10.45063  -2.31727   2.38154   0.00223  -0.00125   0.00203
   H     17.40238  -4.83614   3.54964  -0.00223  -0.00125   0.00203
   H     10.40460  -4.83614   2.38154   0.00223  -0.00125  -0.00203
   H     10.40460  -9.47068   0.58405  -0.00223  -0.00125  -0.00203
   H     13.95197  -1.84017   1.48280  -0.00000   0.00000  -0.00129
   H      7.00022  -5.31323  -1.48280  -0.00000   0.00000  -0.00129
   H      6.90327  -5.31323   1.48280  -0.00000  -0.00000   0.00129
   H     13.85501  -1.84017   4.44839  -0.00000   0.00000   0.00129
   H      8.31735  -6.00047   2.38537   0.00057  -0.00277  -0.00150
   H      8.31735  -8.30634   0.58022  -0.00057  -0.00277  -0.00150
   H     12.53788  -1.15294   2.38537   0.00057  -0.00277   0.00150
   H     12.53788   1.15294   0.58022  -0.00057  -0.00277   0.00150
   H     12.53788  -1.15294   0.58022  -0.00057   0.00277   0.00150
   H     12.53788   1.15294   2.38537   0.00057   0.00277   0.00150
   H      8.31735  -6.00047   0.58022  -0.00057   0.00277  -0.00150
   H      8.31735  -8.30634   2.38537   0.00057   0.00277  -0.00150
   H      8.35493  -3.59723   0.62785  -0.00191   0.00208   0.00572
   H      8.35493   3.59723   2.33774   0.00191   0.00208   0.00572
   H     12.50030  -3.55618   0.62785  -0.00191   0.00208  -0.00572
   H      5.54856  -3.59723  -0.62785   0.00191   0.00208  -0.00572
   H     12.50030  -3.55618   2.33774   0.00191  -0.00208  -0.00572
   H     12.50030 -10.75064   0.62785  -0.00191  -0.00208  -0.00572
   H      8.35493  -3.59723   2.33774   0.00191  -0.00208   0.00572
   H     15.30668  -3.55618   3.59344  -0.00191  -0.00208   0.00572
   N     12.20352  -3.01305   1.48280  -0.00000  -0.00000  -0.00381
   N      5.25178  -4.14036  -1.48280  -0.00000   0.00000  -0.00381
   N      8.65171  -4.14036   1.48280  -0.00000  -0.00000   0.00381
   N     15.60345  -3.01305   4.44839  -0.00000   0.00000   0.00381
PRIMCOORD    7
     50   1
   Pb    15.50510  -7.15341   1.48280   0.00000  -0.00000   0.00000
   Pb     5.35014   0.00000   1.48280   0.00000  -0.00000   0.00000
   Br     5.51552   2.95267   1.48280  -0.00000   0.00000   0.01321
   Br     5.51552  -2.95267   1.48280   0.00000  -0.00000  -0.01321
   Br    15.33972 -10.10607   1.48280  -0.00000  -0.00000  -0.01321
   Br    15.33972  -4.20074   1.48280  -0.00000  -0.00000   0.01321
   Br    12.36557  -7.15341   1.48280   0.00000  -0.00000   0.00000
   Br     8.48966   0.00000   1.48280   0.00000   0.00000   0.00000
   Br    11.39976   0.00000   4.44839   0.00000  -0.00000  -0.00000
   Br     9.45548  -7.15341  -1.48280   0.00000  -0.00000  -0.00000
   C     10.74048  -2.89271   1.48280   0.00000   0.00000  -0.00559
   C     10.74048   2.89271   1.48280  -0.00000   0.00000   0.00559
   C     10.11475  -4.26069   1.48280   0.00000   0.00000   0.00559
   C     10.11475 -10.04612   1.48280  -0.00000   0.00000  -0.00559
   C     12.86001  -1.70030   1.48280   0.00000   0.00000   0.00385
   C      5.90827  -5.45311  -1.48280  -0.00000   0.00000  -0.00385
   C      7.99522  -5.45311   1.48280   0.00000   0.00000  -0.00385
   C     14.94696  -1.70030   4.44839  -0.00000   0.00000   0.00385
   H     10.40460  -4.83614   0.58405   0.00960  -0.01175   0.01629
   H      3.45285  -2.31727  -0.58405   0.00960   0.01175  -0.01629
   H     10.45063  -2.31727   0.58405   0.00960  -0.01175  -0.01629
   H     10.45063   2.31727   2.38154   0.00960   0.01175   0.01629
   H     10.45063  -2.31727   2.38154  -0.00960   0.01175  -0.01629
   H     17.40238  -4.83614   3.54964  -0.00960  -0.01175   0.01629
   H     10.40460  -4.83614   2.38154  -0.00960   0.01175   0.01629
   H     10.40460  -9.47068   0.58405  -0.00960  -0.01175  -0.01629
   H     13.95197  -1.84017   1.48280   0.00000   0.00000   0.00928
   H      7.00022  -5.31323  -1.48280  -0.00000   0.00000  -0.00928
   H      6.90327  -5.31323   1.48280   0.00000   0.00000  -0.00928
   H     13.85501  -1.84017   4.44839  -0.00000   0.00000   0.00928
   H      8.31735  -6.00047   2.38537  -0.00372   0.00672   0.00157
   H      8.31735  -8.30634   0.58022  -0.00372  -0.00672  -0.00157
   H     12.53788  -1.15294   2.38537  -0.00372   0.00672  -0.00157
   H     12.53788   1.15294   0.58022  -0.00372  -0.00672   0.00157
   H     12.53788  -1.15294   0.58022   0.00372  -0.00672  -0.00157
   H     12.53788   1.15294   2.38537   0.00372   0.00672   0.00157
   H      8.31735  -6.00047   0.58022   0.00372  -0.00672   0.00157
   H      8.31735  -8.30634   2.38537   0.00372   0.00672  -0.00157
   H      8.35493  -3.59723   0.62785   0.00799  -0.00761  -0.01891
   H      8.35493   3.59723   2.33774   0.00799   0.00761   0.01891
   H     12.50030  -3.55618   0.62785   0.00799  -0.00761   0.01891
   H      5.54856  -3.59723  -0.62785   0.00799   0.00761  -0.01891
   H     12.50030  -3.55618   2.33774  -0.00799   0.00761   0.01891
   H     12.50030 -10.75064   0.62785  -0.00799  -0.00761  -0.01891
   H      8.35493  -3.59723   2.33774  -0.00799   0.00761  -0.01891
   H     15.30668  -3.55618   3.59344  -0.00799  -0.00761   0.01891
   N     12.20352  -3.01305   1.48280   0.00000   0.00000   0.01097
   N      5.25178  -4.14036  -1.48280  -0.00000   0.00000  -0.01097
   N      8.65171  -4.14036   1.48280   0.00000   0.00000  -0.01097
   N     15.60345  -3.01305   4.44839  -0.00000   0.00000   0.01097
PRIMCOORD    8
     50   1
   Pb    15.50510  -7.15341   1.48280   0.00000  -0.03784   0.00000
   Pb     5.35014   0.00000   1.48280   0.00000   0.03784   0.00000
   Br     5.51552   2.95267   1.48280  -0.02275   0.03209  -0.00000
   Br     5.51552  -2.95267   1.48280   0.02275   0.03209   0.00000
   Br    15.33972 -10.10607   1.48280   0.02275  -0.03209   0.00000
   Br    15.33972  -4.20074   1.48280  -0.02275  -0.03209  -0.00000
   Br    12.36557  -7.15341   1.48280   0.00000   0.02086   0.00000
   Br     8.48966   0.00000   1.48280   0.00000  -0.02086   0.00000
   Br    11.39976   0.00000   4.44839   0.00000   0.00187  -0.00000
   Br     9.45548  -7.15341  -1.48280   0.00000  -0.00187  -0.00000
   C     10.74048  -2.89271   1.48280  -0.00011   0.00014   0.00000
   C     10.74048   2.89271   1.48280   0.00011   0.00014  -0.00000
   C     10.11475  -4.26069   1.48280   0.00011  -0.00014  -0.00000
   C     10.11475 -10.04612   1.48280  -0.00011  -0.00014  -0.00000
   C     12.86001  -1.70030   1.48280   0.00091   0.00011  -0.00000
   C      5.90827  -5.45311  -1.48280  -0.00091   0.00011   0.00000
   C      7.99522  -5.45311   1.48280  -0.00091  -0.00011   0.00000
   C     14.94696  -1.70030   4.44839   0.00091  -0.00011  -0.00000
   H     10.40460  -4.83614   0.58405   0.00022   0.00017  -0.00005
   H      3.45285  -2.31727  -0.58405  -0.00022   0.00017  -0.00005
   H     10.45063  -2.31727   0.58405  -0.00022  -0.00017  -0.00005
   H     10.45063   2.31727   2.38154   0.00022  -0.00017  -0.00005
   H     10.45063  -2.31727   2.38154  -0.00022  -0.00017   0.00005
   H     17.40238  -4.83614   3.54964   0.00022  -0.00017   0.00005
   H     10.40460  -4.83614   2.38154   0.00022   0.00017   0.00005
   H     10.40460  -9.47068   0.58405  -0.00022   0.00017   0.00005
   H     13.95197  -1.84017   1.48280   0.00076  -0.00156  -0.00000
   H      7.00022  -5.31323  -1.48280  -0.00076  -0.00156   0.00000
   H      6.90327  -5.31323   1.48280  -0.00076   0.00156   0.00000
   H     13.85501  -1.84017   4.44839   0.00076   0.00156  -0.00000
   H      8.31735  -6.00047   2.38537  -0.00188  -0.00052   0.00012
   H      8.31735  -8.30634   0.58022   0.00188  -0.00052   0.00012
   H     12.53788  -1.15294   2.38537   0.00188   0.00052   0.00012
   H     12.53788   1.15294   0.58022  -0.00188   0.00052   0.00012
   H     12.53788  -1.15294   0.58022   0.00188   0.00052  -0.00012
   H     12.53788   1.15294   2.38537  -0.00188   0.00052  -0.00012
   H      8.31735  -6.00047   0.58022  -0.00188  -0.00052  -0.00012
   H      8.31735  -8.30634   2.38537   0.00188  -0.00052  -0.00012
   H      8.35493  -3.59723   0.62785   0.00023  -0.00149   0.00015
   H      8.35493   3.59723   2.33774  -0.00023  -0.00149   0.00015
   H     12.50030  -3.55618   0.62785  -0.00023   0.00149   0.00015
   H      5.54856  -3.59723  -0.62785   0.00023   0.00149   0.00015
   H     12.50030  -3.55618   2.33774  -0.00023   0.00149  -0.00015
   H     12.50030 -10.75064   0.62785   0.00023   0.00149  -0.00015
   H      8.35493  -3.59723   2.33774   0.00023  -0.00149  -0.00015
   H     15.30668  -3.55618   3.59344  -0.00023  -0.00149  -0.00015
   N     12.20352  -3.01305   1.48280  -0.00032   0.00102  -0.00000
   N      5.25178  -4.14036  -1.48280   0.00032   0.00102   0.00000
   N      8.65171  -4.14036   1.48280   0.00032  -0.00102   0.00000
   N     15.60345  -3.01305   4.44839  -0.00032  -0.00102  -0.00000
PRIMCOORD    9
     50   1
   Pb    15.50510  -7.15341   1.48280   0.00000   0.00167  -0.00000
   Pb     5.35014   0.00000   1.48280   0.00000   0.00167  -0.00000
   Br     5.51552   2.95267   1.48280  -0.01521   0.00242   0.00000
   Br     5.51552  -2.95267   1.48280   0.01521   0.00242   0.00000
   Br    15.33972 -10.10607   1.48280  -0.01521   0.00242   0.00000
   Br    15.33972  -4.20074   1.48280   0.01521   0.00242  -0.00000
   Br    12.36557  -7.15341   1.48280   0.00000   0.01482  -0.00000
   Br     8.48966   0.00000   1.48280   0.00000   0.01482  -0.00000
   Br    11.39976   0.00000   4.44839   0.00000  -0.03072   0.00000
   Br     9.45548  -7.15341  -1.48280   0.00000  -0.03072   0.00000
   C     10.74048  -2.89271   1.48280   0.00842   0.00981   0.00000
   C     10.74048   2.89271   1.48280  -0.00842   0.00981   0.00000
   C     10.11475  -4.26069   1.48280   0.00842   0.00981   0.00000
   C     10.11475 -10.04612   1.48280  -0.00842   0.00981   0.00000
   C     12.86001  -1.70030   1.48280   0.01365   0.00299   0.00000
   C      5.90827  -5.45311  -1.48280  -0.01365   0.00299   0.00000
   C      7.99522  -5.45311   1.48280   0.01365   0.00299   0.00000
   C     14.94696  -1.70030   4.44839  -0.01365   0.00299   0.00000
   H     10.40460  -4.83614   0.58405   0.01016   0.01041   0.00024
   H      3.45285  -2.31727  -0.58405  -0.01016   0.01041   0.00024
   H     10.45063  -2.31727   0.58405   0.01016   0.01041  -0.00024
   H     10.45063   2.31727   2.38154  -0.01016   0.01041  -0.00024
   H     10.45063  -2.31727   2.38154   0.01016   0.01041   0.00024
   H     17.40238  -4.83614   3.54964  -0.01016   0.01041   0.00024
   H     10.40460  -4.83614   2.38154   0.01016   0.01041  -0.00024
   H     10.40460  -9.47068   0.58405  -0.01016   0.01041  -0.00024
   H     13.95197  -1.84017   1.48280   0.01312  -0.00109   0.00000
   H      7.00022  -5.31323  -1.48280  -0.01312  -0.00109   0.00000
   H      6.90327  -5.31323   1.48280   0.01312  -0.00109   0.00000
   H     13.85501  -1.84017   4.44839  -0.01312  -0.00109  -0.00000
   H      8.31735  -6.00047   2.38537   0.01557   0.00390  -0.00002
   H      8.31735  -8.30634   0.58022  -0.01557   0.00390  -0.00002
   H     12.53788  -1.15294   2.38537   0.01557   0.00390   0.00002
   H     12.53788   1.15294   0.58022  -0.01557   0.00390   0.00002
   H     12.53788  -1.15294   0.58022   0.01557   0.00390  -0.00002