[Molden Format]
[FREQ]
    0.00
    0.00
    0.00
   29.98
   31.85
   32.61
   36.09
   39.11
   40.10
   40.19
   42.25
   43.65
   46.76
   47.72
   48.23
   50.92
   55.32
   59.71
   59.73
   60.93
   64.59
   64.76
   85.20
   92.59
   97.92
   99.98
  104.01
  107.50
  107.77
  108.54
  109.19
  115.14
  115.69
  118.13
  122.22
  123.89
  129.28
  133.04
  139.28
  146.76
  153.58
  161.33
  170.19
  183.12
  189.91
  194.62
  232.98
  238.06
  247.86
  247.90
  289.45
  293.73
  316.83
  322.46
  328.18
  332.84
  383.02
  386.37
  475.42
  479.79
  739.40
  740.43
  804.24
  810.91
  864.20
  865.62
  937.85
  938.37
  968.21
  969.21
  996.70
 1013.67
 1046.48
 1049.13
 1067.76
 1072.99
 1086.23
 1090.28
 1092.15
 1095.05
 1120.31
 1125.07
 1186.10
 1188.50
 1203.88
 1212.89
 1268.29
 1272.68
 1280.78
 1282.81
 1286.11
 1288.95
 1356.86
 1358.78
 1361.96
 1364.06
 1365.66
 1372.92
 1374.34
 1376.39
 1379.63
 1381.06
 1384.83
 1386.38
 1394.40
 1397.57
 1399.73
 1404.32
 1407.85
 1408.11
 1408.64
 1409.24
 1413.07
 1419.24
 1432.52
 1435.97
 1437.17
 1445.02
 1489.04
 1492.94
 1499.90
 1501.05
 2902.08
 2905.80
 2906.11
 2906.57
 2906.77
 2907.38
 2910.35
 2915.48
 2919.16
 2919.62
 2928.52
 2929.72
 2962.43
 2962.76
 2964.77
 2968.67
 2976.72
 2976.81
 2993.46
 2994.05
 2994.78
 2996.49
 2998.69
 2998.69
 3026.75
 3027.48
 3029.56
 3029.86
[FR-COORD]
   Pb         29.30038      -13.51798        2.80208
   Pb         10.11029        0.00000        2.80208
   Br         10.42282        5.57973        2.80208
   Br         10.42282       -5.57973        2.80208
   Br         28.98786      -19.09771        2.80208
   Br         28.98786       -7.93825        2.80208
   Br         23.36754      -13.51798        2.80208
   Br         16.04314        0.00000        2.80208
   Br         21.54242        0.00000        8.40623
   Br         17.86826      -13.51798       -2.80208
   C          20.29657       -5.46643        2.80208
   C          20.29657        5.46643        2.80208
   C          19.11411       -8.05154        2.80208
   C          19.11411      -18.98441        2.80208
   C          24.30191       -3.21310        2.80208
   C          11.16501      -10.30488       -2.80208
   C          15.10877      -10.30488        2.80208
   C          28.24567       -3.21310        8.40623
   H          19.66184       -9.13897        1.10369
   H           6.52495       -4.37901       -1.10369
   H          19.74884       -4.37901        1.10369
   H          19.74884        4.37901        4.50047
   H          19.74884       -4.37901        4.50047
   H          32.88573       -9.13897        6.70784
   H          19.66184       -9.13897        4.50047
   H          19.66184      -17.89699        1.10369
   H          26.36540       -3.47742        2.80208
   H          13.22850      -10.04055       -2.80208
   H          13.04528      -10.04055        2.80208
   H          26.18217       -3.47742        8.40623
   H          15.71752      -11.33925        4.50769
   H          15.71752      -15.69671        1.09646
   H          23.69316       -2.17873        4.50769
   H          23.69316        2.17873        1.09646
   H          23.69316       -2.17873        1.09646
   H          23.69316        2.17873        4.50769
   H          15.71752      -11.33925        1.09646
   H          15.71752      -15.69671        4.50769
   H          15.78853       -6.79778        1.18647
   H          15.78853        6.79778        4.41768
   H          23.62215       -6.72020        1.18647
   H          10.48525       -6.79778       -1.18647
   H          23.62215       -6.72020        4.41768
   H          23.62215      -20.31576        1.18647
   H          15.78853       -6.79778        4.41768
   H          28.92543       -6.72020        6.79063
   N          23.06132       -5.69384        2.80208
   N           9.92442       -7.82414       -2.80208
   N          16.34936       -7.82414        2.80208
   N          29.48625       -5.69384        8.40623
[FR-NORM-COORD]
 vibration     1
  -0.00306  -0.00017   0.14139
  -0.00306  -0.00017   0.14139
  -0.00306  -0.00017   0.14139
  -0.00306  -0.00017   0.14139
  -0.00306  -0.00017   0.14139
  -0.00306  -0.00017   0.14139
  -0.00306  -0.00017   0.14139
  -0.00306  -0.00017   0.14139
  -0.00306  -0.00017   0.14139
  -0.00306  -0.00017   0.14139
  -0.00306  -0.00017   0.14139
  -0.00306  -0.00017   0.14139
  -0.00306  -0.00017   0.14139
  -0.00306  -0.00017   0.14139
  -0.00306  -0.00017   0.14139
  -0.00306  -0.00017   0.14139
  -0.00306  -0.00017   0.14139
  -0.00306  -0.00017   0.14139
  -0.00306  -0.00017   0.14139
  -0.00306  -0.00017   0.14139
  -0.00306  -0.00017   0.14139
  -0.00306  -0.00017   0.14139
  -0.00306  -0.00017   0.14139
  -0.00306  -0.00017   0.14139
  -0.00306  -0.00017   0.14139
  -0.00306  -0.00017   0.14139
  -0.00306  -0.00017   0.14139
  -0.00306  -0.00017   0.14139
  -0.00306  -0.00017   0.14139
  -0.00306  -0.00017   0.14139
  -0.00306  -0.00017   0.14139
  -0.00306  -0.00017   0.14139
  -0.00306  -0.00017   0.14139
  -0.00306  -0.00017   0.14139
  -0.00306  -0.00017   0.14139
  -0.00306  -0.00017   0.14139
  -0.00306  -0.00017   0.14139
  -0.00306  -0.00017   0.14139
  -0.00306  -0.00017   0.14139
  -0.00306  -0.00017   0.14139
  -0.00306  -0.00017   0.14139
  -0.00306  -0.00017   0.14139
  -0.00306  -0.00017   0.14139
  -0.00306  -0.00017   0.14139
  -0.00306  -0.00017   0.14139
  -0.00306  -0.00017   0.14139
  -0.00306  -0.00017   0.14139
  -0.00306  -0.00017   0.14139
  -0.00306  -0.00017   0.14139
  -0.00306  -0.00017   0.14139
 vibration     2
   0.07727  -0.11844   0.00153
   0.07727  -0.11844   0.00153
   0.07727  -0.11844   0.00153
   0.07727  -0.11844   0.00153
   0.07727  -0.11844   0.00153
   0.07727  -0.11844   0.00153
   0.07727  -0.11844   0.00153
   0.07727  -0.11844   0.00153
   0.07727  -0.11844   0.00153
   0.07727  -0.11844   0.00153
   0.07727  -0.11844   0.00153
   0.07727  -0.11844   0.00153
   0.07727  -0.11844   0.00153
   0.07727  -0.11844   0.00153
   0.07727  -0.11844   0.00153
   0.07727  -0.11844   0.00153
   0.07727  -0.11844   0.00153
   0.07727  -0.11844   0.00153
   0.07727  -0.11844   0.00153
   0.07727  -0.11844   0.00153
   0.07727  -0.11844   0.00153
   0.07727  -0.11844   0.00153
   0.07727  -0.11844   0.00153
   0.07727  -0.11844   0.00153
   0.07727  -0.11844   0.00153
   0.07727  -0.11844   0.00153
   0.07727  -0.11844   0.00153
   0.07727  -0.11844   0.00153
   0.07727  -0.11844   0.00153
   0.07727  -0.11844   0.00153
   0.07727  -0.11844   0.00153
   0.07727  -0.11844   0.00153
   0.07727  -0.11844   0.00153
   0.07727  -0.11844   0.00153
   0.07727  -0.11844   0.00153
   0.07727  -0.11844   0.00153
   0.07727  -0.11844   0.00153
   0.07727  -0.11844   0.00153
   0.07727  -0.11844   0.00153
   0.07727  -0.11844   0.00153
   0.07727  -0.11844   0.00153
   0.07727  -0.11844   0.00153
   0.07727  -0.11844   0.00153
   0.07727  -0.11844   0.00153
   0.07727  -0.11844   0.00153
   0.07727  -0.11844   0.00153
   0.07727  -0.11844   0.00153
   0.07727  -0.11844   0.00153
   0.07727  -0.11844   0.00153
   0.07727  -0.11844   0.00153
 vibration     3
   0.11841   0.07728   0.00265
   0.11841   0.07728   0.00265
   0.11841   0.07728   0.00265
   0.11841   0.07728   0.00265
   0.11841   0.07728   0.00265
   0.11841   0.07728   0.00265
   0.11841   0.07728   0.00265
   0.11841   0.07728   0.00265
   0.11841   0.07728   0.00265
   0.11841   0.07728   0.00265
   0.11841   0.07728   0.00265
   0.11841   0.07728   0.00265
   0.11841   0.07728   0.00265
   0.11841   0.07728   0.00265
   0.11841   0.07728   0.00265
   0.11841   0.07728   0.00265
   0.11841   0.07728   0.00265
   0.11841   0.07728   0.00265
   0.11841   0.07728   0.00265
   0.11841   0.07728   0.00265
   0.11841   0.07728   0.00265
   0.11841   0.07728   0.00265
   0.11841   0.07728   0.00265
   0.11841   0.07728   0.00265
   0.11841   0.07728   0.00265
   0.11841   0.07728   0.00265
   0.11841   0.07728   0.00265
   0.11841   0.07728   0.00265
   0.11841   0.07728   0.00265
   0.11841   0.07728   0.00265
   0.11841   0.07728   0.00265
   0.11841   0.07728   0.00265
   0.11841   0.07728   0.00265
   0.11841   0.07728   0.00265
   0.11841   0.07728   0.00265
   0.11841   0.07728   0.00265
   0.11841   0.07728   0.00265
   0.11841   0.07728   0.00265
   0.11841   0.07728   0.00265
   0.11841   0.07728   0.00265
   0.11841   0.07728   0.00265
   0.11841   0.07728   0.00265
   0.11841   0.07728   0.00265
   0.11841   0.07728   0.00265
   0.11841   0.07728   0.00265
   0.11841   0.07728   0.00265
   0.11841   0.07728   0.00265
   0.11841   0.07728   0.00265
   0.11841   0.07728   0.00265
   0.11841   0.07728   0.00265
 vibration     4
   0.00000  -0.04769   0.00000
   0.00000   0.04769   0.00000
   0.18895   0.01842  -0.00000
  -0.18895   0.01842  -0.00000
  -0.18895  -0.01842  -0.00000
   0.18895  -0.01842  -0.00000
   0.00000   0.16025   0.00000
   0.00000  -0.16025   0.00000
   0.00000  -0.32000  -0.00000
  -0.00000   0.32000  -0.00000
   0.03649  -0.01634  -0.00000
  -0.03649  -0.01634  -0.00000
  -0.03649   0.01634  -0.00000
   0.03649   0.01634  -0.00000
   0.09417  -0.11798  -0.00000
  -0.09417  -0.11798  -0.00000
  -0.09417   0.11798  -0.00000
   0.09417   0.11798  -0.00000
  -0.06937  -0.00362   0.00158
   0.06937  -0.00362   0.00158
   0.06937   0.00362   0.00158
  -0.06937   0.00362   0.00158
   0.06937   0.00362  -0.00158
  -0.06937   0.00362  -0.00158
  -0.06937  -0.00362  -0.00158
   0.06937  -0.00362  -0.00158
   0.08649  -0.17207  -0.00000
  -0.08649  -0.17207  -0.00000
  -0.08649   0.17207  -0.00000
   0.08649   0.17207  -0.00000
  -0.11890   0.10547   0.00047
   0.11890   0.10547   0.00047
   0.11890  -0.10547   0.00047
  -0.11890  -0.10547   0.00047
   0.11890  -0.10547  -0.00047
  -0.11890  -0.10547  -0.00047
  -0.11890   0.10547  -0.00047
   0.11890   0.10547  -0.00047
  -0.01075   0.09544  -0.00271
   0.01075   0.09544  -0.00271
   0.01075  -0.09544  -0.00271
  -0.01075  -0.09544  -0.00271
   0.01075  -0.09544   0.00271
  -0.01075  -0.09544   0.00271
  -0.01075   0.09544   0.00271
   0.01075   0.09544   0.00271
   0.03214  -0.08736  -0.00000
  -0.03214  -0.08736  -0.00000
  -0.03214   0.08736  -0.00000
   0.03214   0.08736  -0.00000
 vibration     5
  -0.00000  -0.00000  -0.14802
  -0.00000   0.00000  -0.14802
   0.00000   0.00000   0.14865
  -0.00000   0.00000   0.14865
  -0.00000  -0.00000   0.14865
   0.00000   0.00000   0.14865
  -0.00000   0.00000  -0.16506
  -0.00000  -0.00000  -0.16506
  -0.00000  -0.00000   0.09409
  -0.00000   0.00000   0.09409
  -0.00000  -0.00000   0.16165
   0.00000  -0.00000   0.16165
  -0.00000  -0.00000   0.16165
   0.00000  -0.00000   0.16165
  -0.00000  -0.00000   0.11152
   0.00000  -0.00000   0.11152
  -0.00000   0.00000   0.11152
   0.00000  -0.00000   0.11152
   0.01250  -0.00594   0.16939
  -0.01250  -0.00594   0.16939
  -0.01250   0.00594   0.16939
   0.01250   0.00594   0.16939
   0.01250  -0.00594   0.16939
  -0.01250  -0.00594   0.16939
  -0.01250   0.00594   0.16939
   0.01250   0.00594   0.16939
  -0.00000  -0.00000   0.10462
   0.00000  -0.00000   0.10462
  -0.00000   0.00000   0.10462
   0.00000   0.00000   0.10462
  -0.00858  -0.01837   0.10332
   0.00858  -0.01837   0.10332
   0.00858   0.01837   0.10332
  -0.00858   0.01837   0.10332
  -0.00858  -0.01837   0.10332
   0.00858  -0.01837   0.10332
   0.00858   0.01837   0.10332
  -0.00858   0.01837   0.10332
   0.00862   0.01655   0.15398
  -0.00862   0.01655   0.15398
  -0.00862  -0.01655   0.15398
   0.00862  -0.01655   0.15398
   0.00862   0.01655   0.15398
  -0.00862   0.01655   0.15398
  -0.00862  -0.01655   0.15398
   0.00862  -0.01655   0.15398
  -0.00000  -0.00000   0.14604
   0.00000  -0.00000   0.14604
  -0.00000  -0.00000   0.14604
   0.00000  -0.00000   0.14604
 vibration     6
   0.00000  -0.00000   0.45834
   0.00000  -0.00000  -0.45834
  -0.00000  -0.00000  -0.06557
   0.00000  -0.00000  -0.06557
   0.00000  -0.00000   0.06557
  -0.00000  -0.00000   0.06557
   0.00000  -0.00000  -0.50061
   0.00000   0.00000   0.50061
   0.00000   0.00000   0.05237
   0.00000  -0.00000  -0.05237
  -0.00000  -0.00000   0.00466
  -0.00000   0.00000   0.00466
  -0.00000  -0.00000  -0.00466
  -0.00000   0.00000  -0.00466
  -0.00000   0.00000  -0.00413
  -0.00000   0.00000  -0.00413
  -0.00000  -0.00000   0.00413
  -0.00000   0.00000   0.00413
  -0.02231   0.01255  -0.02034
   0.02231   0.01255  -0.02034
  -0.02231   0.01255   0.02034
   0.02231   0.01255   0.02034
   0.02231  -0.01255   0.02034
  -0.02231  -0.01255   0.02034
   0.02231  -0.01255  -0.02034
  -0.02231  -0.01255  -0.02034
  -0.00000   0.00000  -0.01293
  -0.00000   0.00000  -0.01293
  -0.00000  -0.00000   0.01293
  -0.00000   0.00000   0.01293
   0.00570  -0.02771  -0.01499
  -0.00570  -0.02771  -0.01499
   0.00570  -0.02771   0.01499
  -0.00570  -0.02771   0.01499
  -0.00570   0.02771   0.01499
   0.00570   0.02771   0.01499
  -0.00570   0.02771  -0.01499
   0.00570   0.02771  -0.01499
  -0.01908   0.02076   0.05723
   0.01908   0.02076   0.05723
  -0.01908   0.02076  -0.05723
   0.01908   0.02076  -0.05723
   0.01908  -0.02076  -0.05723
  -0.01908  -0.02076  -0.05723
   0.01908  -0.02076   0.05723
  -0.01908  -0.02076   0.05723
  -0.00000  -0.00000  -0.03811
  -0.00000   0.00000  -0.03811
  -0.00000  -0.00000   0.03811
  -0.00000   0.00000   0.03811
 vibration     7
   0.00000  -0.00000   0.00000
   0.00000  -0.00000   0.00000
  -0.00000   0.00000   0.13213
   0.00000  -0.00000  -0.13213
  -0.00000  -0.00000  -0.13213
  -0.00000  -0.00000   0.13213
   0.00000  -0.00000   0.00000
   0.00000   0.00000   0.00000
   0.00000  -0.00000  -0.00000
   0.00000  -0.00000  -0.00000
   0.00000   0.00000  -0.05588
  -0.00000   0.00000   0.05588
   0.00000   0.00000   0.05588
  -0.00000   0.00000  -0.05588
   0.00000   0.00000   0.03848
  -0.00000   0.00000  -0.03848
   0.00000   0.00000  -0.03848
  -0.00000   0.00000   0.03848
   0.09604  -0.11751   0.16289
   0.09604   0.11751  -0.16289
   0.09604  -0.11751  -0.16289
   0.09604   0.11751   0.16289
  -0.09604   0.11751  -0.16289
  -0.09604  -0.11751   0.16289
  -0.09604   0.11751   0.16289
  -0.09604  -0.11751  -0.16289
   0.00000   0.00000   0.09277
  -0.00000   0.00000  -0.09277
   0.00000   0.00000  -0.09277
  -0.00000   0.00000   0.09277
  -0.03719   0.06720   0.01567
  -0.03719  -0.06720  -0.01567
  -0.03719   0.06720  -0.01567
  -0.03719  -0.06720   0.01567
   0.03719  -0.06720  -0.01567
   0.03719   0.06720   0.01567
   0.03719  -0.06720   0.01567
   0.03719   0.06720  -0.01567
   0.07991  -0.07610  -0.18912
   0.07991   0.07610   0.18912
   0.07991  -0.07610   0.18912
   0.07991   0.07610  -0.18912
  -0.07991   0.07610   0.18912
  -0.07991  -0.07610  -0.18912
  -0.07991   0.07610  -0.18912
  -0.07991  -0.07610   0.18912
   0.00000   0.00000   0.10967
  -0.00000   0.00000  -0.10967
   0.00000   0.00000  -0.10967
  -0.00000   0.00000   0.10967
 vibration     8
   0.00000  -0.37842   0.00000
   0.00000   0.37842   0.00000
  -0.22754   0.32087  -0.00000
   0.22754   0.32087   0.00000
   0.22754  -0.32087   0.00000
  -0.22754  -0.32087  -0.00000
   0.00000   0.20857   0.00000
   0.00000  -0.20857   0.00000
   0.00000   0.01872  -0.00000
   0.00000  -0.01872  -0.00000
  -0.00108   0.00144   0.00000
   0.00108   0.00144  -0.00000
   0.00108  -0.00144  -0.00000
  -0.00108  -0.00144  -0.00000
   0.00907   0.00106  -0.00000
  -0.00907   0.00106   0.00000
  -0.00907  -0.00106   0.00000
   0.00907  -0.00106  -0.00000
   0.00217   0.00167  -0.00052
  -0.00217   0.00167  -0.00052
  -0.00217  -0.00167  -0.00052
   0.00217  -0.00167  -0.00052
  -0.00217  -0.00167   0.00052
   0.00217  -0.00167   0.00052
   0.00217   0.00167   0.00052
  -0.00217   0.00167   0.00052
   0.00764  -0.01561  -0.00000
  -0.00764  -0.01561   0.00000
  -0.00764   0.01561   0.00000
   0.00764   0.01561  -0.00000
  -0.01884  -0.00516   0.00118
   0.01884  -0.00516   0.00118
   0.01884   0.00516   0.00118
  -0.01884   0.00516   0.00118
   0.01884   0.00516  -0.00118
  -0.01884   0.00516  -0.00118
  -0.01884  -0.00516  -0.00118
   0.01884  -0.00516  -0.00118
   0.00228  -0.01486   0.00146
  -0.00228  -0.01486   0.00146
  -0.00228   0.01486   0.00146
   0.00228   0.01486   0.00146
  -0.00228   0.01486  -0.00146
   0.00228   0.01486  -0.00146
   0.00228  -0.01486  -0.00146
  -0.00228  -0.01486  -0.00146
  -0.00323   0.01025  -0.00000
   0.00323   0.01025   0.00000
   0.00323  -0.01025   0.00000
  -0.00323  -0.01025  -0.00000
 vibration     9
   0.00000   0.01668  -0.00000
   0.00000   0.01668  -0.00000
  -0.15212   0.02418   0.00000
   0.15212   0.02418   0.00000
  -0.15212   0.02418   0.00000
   0.15212   0.02418  -0.00000
   0.00000   0.14822  -0.00000
   0.00000   0.14822  -0.00000
   0.00000  -0.30724   0.00000
   0.00000  -0.30724   0.00000
   0.08425   0.09811   0.00000
  -0.08425   0.09811   0.00000
   0.08425   0.09811   0.00000
  -0.08425   0.09811   0.00000
   0.13649   0.02986   0.00000
  -0.13649   0.02986   0.00000
   0.13649   0.02986   0.00000
  -0.13649   0.02986   0.00000
   0.10159   0.10411   0.00242
  -0.10159   0.10411   0.00242
   0.10159   0.10411  -0.00242
  -0.10159   0.10411  -0.00242
   0.10159   0.10411   0.00242
  -0.10159   0.10411   0.00242
   0.10159   0.10411  -0.00242
  -0.10159   0.10411  -0.00242
   0.13125  -0.01089   0.00000
  -0.13125  -0.01089   0.00000
   0.13125  -0.01089   0.00000
  -0.13125  -0.01089  -0.00000
   0.15567   0.03902  -0.00015
  -0.15567   0.03902  -0.00015
   0.15567   0.03902   0.00015
  -0.15567   0.03902   0.00015
   0.15567   0.03902  -0.00015
  -0.15567   0.03902  -0.00015
   0.15567   0.03902   0.00015
  -0.15567   0.03902   0.00015
   0.05698   0.04319  -0.00015
  -0.05698   0.04319  -0.00015
   0.05698   0.04319   0.00015
  -0.05698   0.04319   0.00015
   0.05698   0.04319  -0.00015
  -0.05698   0.04319  -0.00015
   0.05698   0.04319   0.00015
  -0.05698   0.04319   0.00015
   0.08430   0.05648   0.00000
  -0.08430   0.05648   0.00000
   0.08430   0.05648   0.00000
  -0.08430   0.05648  -0.00000
 vibration    10
  -0.10618   0.00000   0.00000
  -0.10618   0.00000  -0.00000
   0.17519  -0.01502   0.00000
   0.17519   0.01502   0.00000
   0.17519  -0.01502  -0.00000
   0.17519   0.01502   0.00000
  -0.12082   0.00000  -0.00000
  -0.12082   0.00000   0.00000
  -0.09898  -0.00000   0.00000
  -0.09898  -0.00000  -0.00000
   0.12365   0.07121  -0.00000
   0.12365  -0.07121   0.00000
   0.12365   0.07121   0.00000
   0.12365  -0.07121   0.00000
   0.13653   0.04895   0.00000
   0.13653  -0.04895  -0.00000
   0.13653   0.04895  -0.00000
   0.13653  -0.04895  -0.00000
   0.12984   0.07325   0.00131
   0.12984  -0.07325  -0.00131
   0.12984   0.07325  -0.00131
   0.12984  -0.07325   0.00131
   0.12984   0.07325   0.00131
   0.12984  -0.07325  -0.00131
   0.12984   0.07325  -0.00131
   0.12984  -0.07325   0.00131
   0.13596   0.04409   0.00000
   0.13596  -0.04409  -0.00000
   0.13596   0.04409  -0.00000
   0.13596  -0.04409  -0.00000
   0.13738   0.04990   0.00040
   0.13738  -0.04990  -0.00040
   0.13738   0.04990  -0.00040
   0.13738  -0.04990   0.00040
   0.13738   0.04990   0.00040
   0.13738  -0.04990  -0.00040
   0.13738   0.04990  -0.00040
   0.13738  -0.04990   0.00040
   0.11929   0.05134  -0.00045
   0.11929  -0.05134   0.00045
   0.11929   0.05134   0.00045
   0.11929  -0.05134  -0.00045
   0.11929   0.05134  -0.00045
   0.11929  -0.05134   0.00045
   0.11929   0.05134   0.00045
   0.11929  -0.05134  -0.00045
   0.12432   0.05528   0.00000
   0.12432  -0.05528   0.00000
   0.12432   0.05528  -0.00000
   0.12432  -0.05528   0.00000
 vibration    11
  -0.00000   0.00000   0.00980
   0.00000   0.00000  -0.00980
   0.00000   0.00000   0.12801
   0.00000  -0.00000   0.12801
  -0.00000   0.00000  -0.12801
  -0.00000   0.00000  -0.12801
  -0.00000   0.00000  -0.01120
   0.00000   0.00000   0.01120
  -0.00000   0.00000   0.04372
   0.00000   0.00000  -0.04372
  -0.00000  -0.00000  -0.05911
   0.00000  -0.00000  -0.05911
  -0.00000  -0.00000   0.05911
   0.00000  -0.00000   0.05911
  -0.00000  -0.00000   0.05383
  -0.00000  -0.00000   0.05383
  -0.00000  -0.00000  -0.05383
   0.00000   0.00000  -0.05383
   0.09705  -0.12095   0.16869
  -0.09705  -0.12095   0.16869
   0.09705  -0.12095  -0.16869
  -0.09705  -0.12095  -0.16869
  -0.09705   0.12095  -0.16869
   0.09705   0.12095  -0.16869
  -0.09705   0.12095   0.16869
   0.09705   0.12095   0.16869
  -0.00000   0.00000   0.09270
  -0.00000  -0.00000   0.09270
  -0.00000  -0.00000  -0.09270
   0.00000   0.00000  -0.09270
  -0.03011   0.05097  -0.01186
   0.03011   0.05097  -0.01186
  -0.03011   0.05097   0.01186
   0.03011   0.05097   0.01186
   0.03011  -0.05097   0.01186
  -0.03011  -0.05097   0.01186
   0.03011  -0.05097  -0.01186
  -0.03011  -0.05097  -0.01186
   0.08604  -0.06894  -0.18589
  -0.08604  -0.06894  -0.18589
   0.08604  -0.06894   0.18589
  -0.08604  -0.06894   0.18589
  -0.08604   0.06894   0.18589
   0.08604   0.06894   0.18589
  -0.08604   0.06894  -0.18589
   0.08604   0.06894  -0.18589
  -0.00000  -0.00000   0.10880
   0.00000  -0.00000   0.10880
  -0.00000  -0.00000  -0.10880
   0.00000  -0.00000  -0.10880
 vibration    12
  -0.30833  -0.00000  -0.00000
   0.30833  -0.00000   0.00000
   0.18712   0.02001  -0.00000
   0.18712  -0.02001  -0.00000
  -0.18712  -0.02001   0.00000
  -0.18712   0.02001   0.00000
  -0.18650  -0.00000   0.00000
   0.18650  -0.00000  -0.00000
  -0.30049   0.00000  -0.00000
   0.30049   0.00000   0.00000
  -0.03001   0.01309   0.00000
  -0.03001  -0.01309   0.00000
   0.03001  -0.01309  -0.00000
   0.03001   0.01309  -0.00000
  -0.08060   0.09799  -0.00000
  -0.08060  -0.09799  -0.00000
   0.08060  -0.09799   0.00000
   0.08060   0.09799   0.00000
   0.05338  -0.00483   0.00163
   0.05338   0.00483  -0.00163
  -0.05338   0.00483   0.00163
  -0.05338  -0.00483  -0.00163
  -0.05338   0.00483  -0.00163
  -0.05338  -0.00483   0.00163
   0.05338  -0.00483  -0.00163
   0.05338   0.00483   0.00163
  -0.07446   0.14167  -0.00000
  -0.07446  -0.14167  -0.00000
   0.07446  -0.14167   0.00000
   0.07446   0.14167   0.00000
   0.10774  -0.08216   0.00021
   0.10774   0.08216  -0.00021
  -0.10774   0.08216   0.00021
  -0.10774  -0.08216  -0.00021
  -0.10774   0.08216  -0.00021
  -0.10774  -0.08216   0.00021
   0.10774  -0.08216  -0.00021
   0.10774   0.08216   0.00021
  -0.00334  -0.08204   0.00258
  -0.00334   0.08204  -0.00258
   0.00334   0.08204   0.00258
   0.00334  -0.08204  -0.00258
   0.00334   0.08204  -0.00258
   0.00334  -0.08204   0.00258
  -0.00334  -0.08204  -0.00258
  -0.00334   0.08204   0.00258
  -0.02601   0.07133  -0.00000
  -0.02601  -0.07133  -0.00000
   0.02601  -0.07133   0.00000
   0.02601   0.07133   0.00000
 vibration    13
  -0.00000   0.00000  -0.00000
   0.00000   0.00000  -0.00000
  -0.00000  -0.00000  -0.17734
   0.00000  -0.00000   0.17734
  -0.00000  -0.00000  -0.17734
   0.00000  -0.00000   0.17734
  -0.00000   0.00000  -0.00000
   0.00000   0.00000   0.00000
  -0.00000   0.00000  -0.00000
   0.00000   0.00000  -0.00000
  -0.00000  -0.00000  -0.17159
   0.00000  -0.00000   0.17159
  -0.00000  -0.00000  -0.17159
   0.00000  -0.00000   0.17159
  -0.00000  -0.00000  -0.05239
   0.00000  -0.00000   0.05239
  -0.00000  -0.00000  -0.05239
   0.00000  -0.00000   0.05239
  -0.00586  -0.00389  -0.17107
  -0.00586   0.00389   0.17107
   0.00586   0.00389  -0.17107
   0.00586  -0.00389   0.17107
  -0.00586  -0.00389  -0.17107
  -0.00586   0.00389   0.17107
   0.00586   0.00389  -0.17107
   0.00586  -0.00389   0.17107
  -0.00000  -0.00000  -0.03950
   0.00000  -0.00000   0.03950
  -0.00000  -0.00000  -0.03950
   0.00000  -0.00000   0.03950
   0.01372   0.07277  -0.01261
   0.01372  -0.07277   0.01261
  -0.01372  -0.07277  -0.01261
  -0.01372   0.07277   0.01261
   0.01372   0.07277  -0.01261
   0.01372  -0.07277   0.01261
  -0.01372  -0.07277  -0.01261
  -0.01372   0.07277   0.01261
  -0.00002  -0.05605  -0.20161
  -0.00002   0.05605   0.20161
   0.00002   0.05605  -0.20161
   0.00002  -0.05605   0.20161
  -0.00002  -0.05605  -0.20161
  -0.00002   0.05605   0.20161
   0.00002   0.05605  -0.20161
   0.00002  -0.05605   0.20161
  -0.00000  -0.00000  -0.16526
   0.00000  -0.00000   0.16526
  -0.00000  -0.00000  -0.16526
   0.00000  -0.00000   0.16526
 vibration    14
   0.00000  -0.00066  -0.00000
  -0.00000  -0.00066  -0.00000
   0.01784   0.02268  -0.00000
  -0.01784   0.02268   0.00000
   0.01784   0.02268  -0.00000
  -0.01784   0.02268   0.00000
   0.00000  -0.15156  -0.00000
  -0.00000  -0.15156  -0.00000
   0.00000  -0.02322   0.00000
  -0.00000  -0.02322   0.00000
   0.09963   0.12081  -0.00000
  -0.09963   0.12081   0.00000
   0.09963   0.12081  -0.00000
  -0.09963   0.12081   0.00000
   0.10492   0.11317   0.00000
  -0.10492   0.11317   0.00000
   0.10492   0.11317  -0.00000
  -0.10492   0.11317   0.00000
   0.10306   0.12334  -0.00061
  -0.10306   0.12334  -0.00061
   0.10306   0.12334   0.00061
  -0.10306   0.12334   0.00061
   0.10306   0.12334  -0.00061
  -0.10306   0.12334  -0.00061
   0.10306   0.12334   0.00061
  -0.10306   0.12334   0.00061
   0.10474   0.11265   0.00000
  -0.10474   0.11265   0.00000
   0.10474   0.11265  -0.00000
  -0.10474   0.11265   0.00000
   0.10478   0.11349   0.00065
  -0.10478   0.11349   0.00065
   0.10478   0.11349  -0.00065
  -0.10478   0.11349  -0.00065
   0.10478   0.11349   0.00065
  -0.10478   0.11349   0.00065
   0.10478   0.11349  -0.00065
  -0.10478   0.11349  -0.00065
   0.09580   0.11063  -0.00210
  -0.09580   0.11063  -0.00210
   0.09580   0.11063   0.00210
  -0.09580   0.11063   0.00210
   0.09580   0.11063  -0.00210
  -0.09580   0.11063  -0.00210
   0.09580   0.11063   0.00210
  -0.09580   0.11063   0.00210
   0.09952   0.11527  -0.00000
  -0.09952   0.11527   0.00000
   0.09952   0.11527  -0.00000
  -0.09952   0.11527   0.00000
 vibration    15
  -0.00000   0.06387   0.00000
   0.00000  -0.06387  -0.00000
   0.08941  -0.03814   0.00000
  -0.08941  -0.03814   0.00000
  -0.08941   0.03814   0.00000
   0.08941   0.03814   0.00000
   0.00000   0.58064  -0.00000
   0.00000  -0.58064   0.00000
   0.00000   0.36657  -0.00000
   0.00000  -0.36657  -0.00000
   0.00755  -0.00551   0.00000
  -0.00755  -0.00551   0.00000
  -0.00755   0.00551   0.00000
   0.00755   0.00551   0.00000
  -0.01411   0.00189  -0.00000
   0.01411   0.00189  -0.00000
   0.01411  -0.00189  -0.00000
  -0.01411  -0.00189  -0.00000
  -0.00667   0.00014   0.00500
   0.00667   0.00014   0.00500
   0.00667  -0.00014   0.00500
  -0.00667  -0.00014   0.00500
   0.00667  -0.00014  -0.00500
  -0.00667  -0.00014  -0.00500
  -0.00667   0.00014  -0.00500
   0.00667   0.00014  -0.00500
  -0.01044   0.02567  -0.00000
   0.01044   0.02567  -0.00000
   0.01044  -0.02567  -0.00000
  -0.01044  -0.02567  -0.00000
   0.02307  -0.00066  -0.00142
  -0.02307  -0.00066  -0.00142
  -0.02307   0.00066  -0.00142
   0.02307   0.00066  -0.00142
  -0.02307   0.00066   0.00142
   0.02307   0.00066   0.00142
   0.02307  -0.00066   0.00142
  -0.02307  -0.00066   0.00142
  -0.01042   0.00899   0.00017
   0.01042   0.00899   0.00017
   0.01042  -0.00899   0.00017
  -0.01042  -0.00899   0.00017
   0.01042  -0.00899  -0.00017
  -0.01042  -0.00899  -0.00017
  -0.01042   0.00899  -0.00017
   0.01042   0.00899  -0.00017
   0.00632  -0.00838  -0.00000
  -0.00632  -0.00838   0.00000
  -0.00632   0.00838  -0.00000
   0.00632   0.00838   0.00000
 vibration    16
  -0.00000  -0.00000  -0.01472
   0.00000  -0.00000  -0.01472
   0.00000  -0.00000  -0.09143
   0.00000  -0.00000  -0.09143
   0.00000  -0.00000  -0.09143
   0.00000  -0.00000  -0.09143
  -0.00000   0.00000  -0.01597
   0.00000   0.00000  -0.01597
  -0.00000   0.00000   0.24822
   0.00000   0.00000   0.24822
  -0.00000  -0.00000  -0.11145
   0.00000  -0.00000  -0.11145
  -0.00000  -0.00000  -0.11145
   0.00000  -0.00000  -0.11145
  -0.00000  -0.00000   0.13023
   0.00000  -0.00000   0.13023
  -0.00000  -0.00000   0.13023
   0.00000  -0.00000   0.13023
  -0.03124  -0.00186  -0.12034
   0.03124  -0.00186  -0.12034
   0.03124   0.00186  -0.12034
  -0.03124   0.00186  -0.12034
  -0.03124  -0.00186  -0.12034
   0.03124  -0.00186  -0.12034
   0.03124   0.00186  -0.12034
  -0.03124   0.00186  -0.12034
  -0.00000  -0.00000   0.14631
   0.00000  -0.00000   0.14631
  -0.00000  -0.00000   0.14631
   0.00000  -0.00000   0.14631
   0.02945   0.10805   0.18653
  -0.02945   0.10805   0.18653
  -0.02945  -0.10805   0.18653
   0.02945  -0.10805   0.18653
   0.02945   0.10805   0.18653
  -0.02945   0.10805   0.18653
  -0.02945  -0.10805   0.18653
   0.02945  -0.10805   0.18653
  -0.03798  -0.07746  -0.09024
   0.03798  -0.07746  -0.09024
   0.03798   0.07746  -0.09024
  -0.03798   0.07746  -0.09024
  -0.03798  -0.07746  -0.09024
   0.03798  -0.07746  -0.09024
   0.03798   0.07746  -0.09024
  -0.03798   0.07746  -0.09024
  -0.00000  -0.00000  -0.05517
   0.00000  -0.00000  -0.05517
  -0.00000  -0.00000  -0.05517
   0.00000  -0.00000  -0.05517
 vibration    17
   0.00000  -0.00000  -0.00657
   0.00000  -0.00000   0.00657
  -0.00000  -0.00000  -0.02999
  -0.00000  -0.00000  -0.02999
  -0.00000  -0.00000   0.02999
  -0.00000  -0.00000   0.02999
   0.00000   0.00000   0.02101
   0.00000   0.00000  -0.02101
   0.00000   0.00000   0.25870
   0.00000   0.00000  -0.25870
   0.00000   0.00000   0.07973
   0.00000  -0.00000   0.07973
   0.00000   0.00000  -0.07973
   0.00000  -0.00000  -0.07973
   0.00000   0.00000   0.11071
   0.00000  -0.00000   0.11071
   0.00000   0.00000  -0.11071
   0.00000  -0.00000  -0.11071
  -0.04225   0.12887  -0.17612
   0.04225   0.12887  -0.17612
  -0.04225   0.12887   0.17612
   0.04225   0.12887   0.17612
   0.04225  -0.12887   0.17612
  -0.04225  -0.12887   0.17612
   0.04225  -0.12887  -0.17612
  -0.04225  -0.12887  -0.17612
   0.00000   0.00000   0.07698