[node057.cluster:mpi_rank_0][rdma_param_handle_heterogeneity] All nodes involved in the job were detected to be homogeneous in terms of processors and interconnects. Setting MV2_HOMOGENEOUS_CLUSTER=1 can improve job startup performance on such systems. The following link has more details on enhancing job startup performance. http://mvapich.cse.ohio-state.edu/performance/job-startup/.
[node057.cluster:mpi_rank_0][rdma_param_handle_heterogeneity] To suppress this warning, please set MV2_SUPPRESS_JOB_STARTUP_PERFORMANCE_WARNING to 1

     Program PHONON v.7.1 starts on 23Jun2023 at 10:27:46 

     This program is part of the open-source Quantum ESPRESSO suite
     for quantum simulation of materials; please cite
         "P. Giannozzi et al., J. Phys.:Condens. Matter 21 395502 (2009);
         "P. Giannozzi et al., J. Phys.:Condens. Matter 29 465901 (2017);
         "P. Giannozzi et al., J. Chem. Phys. 152 154105 (2020);
          URL http://www.quantum-espresso.org", 
     in publications or presentations arising from this work. More details at
     http://www.quantum-espresso.org/quote

     Parallel version (MPI), running on   112 processors

     MPI processes distributed on     2 nodes
     R & G space division:  proc/nbgrp/npool/nimage =     112
     131894 MiB available memory on the printing compute node when the environment starts
 
     Waiting for input...
     Reading input from standard input
      Title line not specified: using 'default'.

     Reading xml data from directory:

     ./scf.save/

     IMPORTANT: XC functional enforced from input :
     Exchange-correlation= PW
                           (   1   4   0   0   0   0   0)
     Any further DFT definition will be discarded
     Please, verify this is what you really want

 
     Parallelization info
     --------------------
     sticks:   dense  smooth     PW     G-vecs:    dense   smooth      PW
     Min          87      87     24                 3431     3431     491
     Max          88      88     25                 3436     3436     494
     Sum        9805    9805   2699               384541   384541   55139
 
     Using Pencil Decomposition
 
     Reading collected, re-writing distributed wavefunctions

     Calculation of q =    0.0000000   0.0000000   0.0000000

     default                                                                    

     bravais-lattice index     =            0
     lattice parameter (alat)  =      19.6652  a.u.
     unit-cell volume          =    3980.8378 (a.u.)^3
     number of atoms/cell      =           50
     number of atomic types    =            5
     kinetic-energy cut-off    =      80.0000  Ry
     charge density cut-off    =     320.0000  Ry
     convergence threshold     =      1.0E-18
     beta                      =       0.3000
     number of iterations used =            4
     Exchange-correlation= PW
                           (   1   4   0   0   0   0   0)


     celldm(1)=   19.66520  celldm(2)=    0.00000  celldm(3)=    0.00000
     celldm(4)=    0.00000  celldm(5)=    0.00000  celldm(6)=    0.00000

     crystal axes: (cart. coord. in units of alat)
               a(1) = (  0.6680  0.6874  0.2850 )  
               a(2) = (  0.6680 -0.6874  0.2850 )  
               a(3) = (  0.6680 -0.6874 -0.2850 )  

     reciprocal axes: (cart. coord. in units 2 pi/alat)
               b(1) = (  0.7485  0.7274 -0.0000 )  
               b(2) = (  0.0000 -0.7274  1.7545 )  
               b(3) = (  0.7485  0.0000 -1.7545 )  


     Atoms inside the unit cell: 

     Cartesian axes

     site n.  atom      mass           positions (alat units)
        1     Pb 207.2000   tau(    1) = (    1.48996   -0.68741    0.14249  )
        2     Pb 207.2000   tau(    2) = (    0.51412   -0.00000    0.14249  )
        3     Br  79.9000   tau(    3) = (    0.53001    0.28374    0.14249  )
        4     Br  79.9000   tau(    4) = (    0.53001   -0.28374    0.14249  )
        5     Br  79.9000   tau(    5) = (    1.47407   -0.97114    0.14249  )
        6     Br  79.9000   tau(    6) = (    1.47407   -0.40367    0.14249  )
        7     Br  79.9000   tau(    7) = (    1.18827   -0.68741    0.14249  )
        8     Br  79.9000   tau(    8) = (    0.81581    0.00000    0.14249  )
        9     Br  79.9000   tau(    9) = (    1.09546   -0.00000    0.42747  )
       10     Br  79.9000   tau(   10) = (    0.90862   -0.68741   -0.14249  )
       11     C   12.0100   tau(   11) = (    1.03211   -0.27797    0.14249  )
       12     C   12.0100   tau(   12) = (    1.03211    0.27797    0.14249  )
       13     C   12.0100   tau(   13) = (    0.97198   -0.40943    0.14249  )
       14     C   12.0100   tau(   14) = (    0.97198   -0.96538    0.14249  )
       15     C   12.0100   tau(   15) = (    1.23578   -0.16339    0.14249  )
       16     C   12.0100   tau(   16) = (    0.56775   -0.52402   -0.14249  )
       17     C   12.0100   tau(   17) = (    0.76830   -0.52402    0.14249  )
       18     C   12.0100   tau(   18) = (    1.43633   -0.16339    0.42747  )
       19     H    1.0080   tau(   19) = (    0.99983   -0.46473    0.05612  )
       20     H    1.0080   tau(   20) = (    0.33180   -0.22268   -0.05612  )
       21     H    1.0080   tau(   21) = (    1.00425   -0.22268    0.05612  )
       22     H    1.0080   tau(   22) = (    1.00425    0.22268    0.22885  )
       23     H    1.0080   tau(   23) = (    1.00425   -0.22268    0.22885  )
       24     H    1.0080   tau(   24) = (    1.67228   -0.46473    0.34110  )
       25     H    1.0080   tau(   25) = (    0.99983   -0.46473    0.22885  )
       26     H    1.0080   tau(   26) = (    0.99983   -0.91008    0.05612  )
       27     H    1.0080   tau(   27) = (    1.34071   -0.17683    0.14249  )
       28     H    1.0080   tau(   28) = (    0.67269   -0.51057   -0.14249  )
       29     H    1.0080   tau(   29) = (    0.66337   -0.51057    0.14249  )
       30     H    1.0080   tau(   30) = (    1.33140   -0.17683    0.42747  )
       31     H    1.0080   tau(   31) = (    0.79926   -0.57661    0.22922  )
       32     H    1.0080   tau(   32) = (    0.79926   -0.79820    0.05576  )
       33     H    1.0080   tau(   33) = (    1.20483   -0.11079    0.22922  )
       34     H    1.0080   tau(   34) = (    1.20483    0.11079    0.05576  )
       35     H    1.0080   tau(   35) = (    1.20483   -0.11079    0.05576  )
       36     H    1.0080   tau(   36) = (    1.20483    0.11079    0.22922  )
       37     H    1.0080   tau(   37) = (    0.79926   -0.57661    0.05576  )
       38     H    1.0080   tau(   38) = (    0.79926   -0.79820    0.22922  )
       39     H    1.0080   tau(   39) = (    0.80287   -0.34568    0.06033  )
       40     H    1.0080   tau(   40) = (    0.80287    0.34568    0.22464  )
       41     H    1.0080   tau(   41) = (    1.20122   -0.34173    0.06033  )
       42     H    1.0080   tau(   42) = (    0.53319   -0.34568   -0.06033  )
       43     H    1.0080   tau(   43) = (    1.20122   -0.34173    0.22464  )
       44     H    1.0080   tau(   44) = (    1.20122   -1.03308    0.06033  )
       45     H    1.0080   tau(   45) = (    0.80287   -0.34568    0.22464  )
       46     H    1.0080   tau(   46) = (    1.47089   -0.34173    0.34531  )
       47     N   14.0100   tau(   47) = (    1.17270   -0.28954    0.14249  )
       48     N   14.0100   tau(   48) = (    0.50467   -0.39787   -0.14249  )
       49     N   14.0100   tau(   49) = (    0.83139   -0.39787    0.14249  )
       50     N   14.0100   tau(   50) = (    1.49941   -0.28954    0.42747  )

     Computing dynamical matrix for 
                    q = (   0.0000000   0.0000000   0.0000000 )
 
      9 Sym.Ops. (with q -> -q+G )


     G cutoff = 3134.6363  (   3433 G-vectors)     FFT grid: (120,120,120)
     number of k points=     8
                       cart. coord. in units 2pi/alat
        k(    1) = (   0.2494908   0.0000000  -0.0000000), wk =   0.1481481
        k(    2) = (  -0.2494908  -0.0000000   1.1696802), wk =   0.2962963
        k(    3) = (  -0.0000000  -0.0000000   0.5848401), wk =   0.1481481
        k(    4) = (   0.2494908   0.4849148  -1.1696802), wk =   0.5925926
        k(    5) = (  -0.2494908   0.4849148   0.0000000), wk =   0.2962963
        k(    6) = (  -0.0000000   0.4849148  -0.5848401), wk =   0.2962963
        k(    7) = (  -0.0000000   0.2424574  -0.0000000), wk =   0.1481481
        k(    8) = (  -0.7484724  -0.0000000   0.0000000), wk =   0.0740741

     PseudoPot. # 1 for Pb read from file:
     /home/rkarkee/merced_home_backup/rkarkee/LDA/Pb.upf
     MD5 check sum: 8ad8d2bb8df011aab85e70b3f3e56d27
     Pseudo is Norm-conserving + core correction, Zval = 14.0
     Generated using ONCVPSP code by D. R. Hamann
     Using radial grid of 1638 points,  6 beta functions with: 
                l(1) =   0
                l(2) =   0
                l(3) =   1
                l(4) =   1
                l(5) =   2
                l(6) =   2

     PseudoPot. # 2 for Br read from file:
     /home/rkarkee/merced_home_backup/rkarkee/LDA/Br.upf
     MD5 check sum: 279e723dabc259e39da0b35054823436
     Pseudo is Norm-conserving + core correction, Zval =  7.0
     Generated using ONCVPSP code by D. R. Hamann
     Using radial grid of 1084 points,  6 beta functions with: 
                l(1) =   0
                l(2) =   0
                l(3) =   1
                l(4) =   1
                l(5) =   2
                l(6) =   2

     PseudoPot. # 3 for C  read from file:
     /home/rkarkee/merced_home_backup/rkarkee/LDA/C.upf
     MD5 check sum: c9bd9c91d9c48f3c1b9c51e450525728
     Pseudo is Norm-conserving + core correction, Zval =  4.0
     Generated using ONCVPSP code by D. R. Hamann
     Using radial grid of 1234 points,  4 beta functions with: 
                l(1) =   0
                l(2) =   0
                l(3) =   1
                l(4) =   1

     PseudoPot. # 4 for H  read from file:
     /home/rkarkee/merced_home_backup/rkarkee/LDA/H.upf
     MD5 check sum: 785d664e2740b342582c379770e72c80
     Pseudo is Norm-conserving, Zval =  1.0
     Generated using ONCVPSP code by D. R. Hamann
     Using radial grid of 1180 points,  3 beta functions with: 
                l(1) =   0
                l(2) =   0
                l(3) =   1

     PseudoPot. # 5 for N  read from file:
     /home/rkarkee/merced_home_backup/rkarkee/LDA/N.upf
     MD5 check sum: f7cfb052850314c53fa2901765c0b356
     Pseudo is Norm-conserving + core correction, Zval =  5.0
     Generated using ONCVPSP code by D. R. Hamann
     Using radial grid of 1058 points,  4 beta functions with: 
                l(1) =   0
                l(2) =   0
                l(3) =   1
                l(4) =   1

     Mode symmetry, D_2h (mmm)  point group:


     Electric field:
     Dielectric constant
     Born effective charges as d Force / d E
     Raman tensor


     Atomic displacements:
     There are  150 irreducible representations

     Representation     1      1 modes -  To be done

     Representation     2      1 modes -  To be done

     Representation     3      1 modes -  To be done

     Representation     4      1 modes -  To be done

     Representation     5      1 modes -  To be done

     Representation     6      1 modes -  To be done

     Representation     7      1 modes -  To be done

     Representation     8      1 modes -  To be done

     Representation     9      1 modes -  To be done

     Representation    10      1 modes -  To be done

     Representation    11      1 modes -  To be done

     Representation    12      1 modes -  To be done

     Representation    13      1 modes -  To be done

     Representation    14      1 modes -  To be done

     Representation    15      1 modes -  To be done

     Representation    16      1 modes -  To be done

     Representation    17      1 modes -  To be done

     Representation    18      1 modes -  To be done

     Representation    19      1 modes -  To be done

     Representation    20      1 modes -  To be done

     Representation    21      1 modes -  To be done

     Representation    22      1 modes -  To be done

     Representation    23      1 modes -  To be done

     Representation    24      1 modes -  To be done

     Representation    25      1 modes -  To be done

     Representation    26      1 modes -  To be done

     Representation    27      1 modes -  To be done

     Representation    28      1 modes -  To be done

     Representation    29      1 modes -  To be done

     Representation    30      1 modes -  To be done

     Representation    31      1 modes -  To be done

     Representation    32      1 modes -  To be done

     Representation    33      1 modes -  To be done

     Representation    34      1 modes -  To be done

     Representation    35      1 modes -  To be done

     Representation    36      1 modes -  To be done

     Representation    37      1 modes -  To be done

     Representation    38      1 modes -  To be done

     Representation    39      1 modes -  To be done

     Representation    40      1 modes -  To be done

     Representation    41      1 modes -  To be done

     Representation    42      1 modes -  To be done

     Representation    43      1 modes -  To be done

     Representation    44      1 modes -  To be done

     Representation    45      1 modes -  To be done

     Representation    46      1 modes -  To be done

     Representation    47      1 modes -  To be done

     Representation    48      1 modes -  To be done

     Representation    49      1 modes -  To be done

     Representation    50      1 modes -  To be done

     Representation    51      1 modes -  To be done

     Representation    52      1 modes -  To be done

     Representation    53      1 modes -  To be done

     Representation    54      1 modes -  To be done

     Representation    55      1 modes -  To be done

     Representation    56      1 modes -  To be done

     Representation    57      1 modes -  To be done

     Representation    58      1 modes -  To be done

     Representation    59      1 modes -  To be done

     Representation    60      1 modes -  To be done

     Representation    61      1 modes -  To be done

     Representation    62      1 modes -  To be done

     Representation    63      1 modes -  To be done

     Representation    64      1 modes -  To be done

     Representation    65      1 modes -  To be done

     Representation    66      1 modes -  To be done

     Representation    67      1 modes -  To be done

     Representation    68      1 modes -  To be done

     Representation    69      1 modes -  To be done

     Representation    70      1 modes -  To be done

     Representation    71      1 modes -  To be done

     Representation    72      1 modes -  To be done

     Representation    73      1 modes -  To be done

     Representation    74      1 modes -  To be done

     Representation    75      1 modes -  To be done

     Representation    76      1 modes -  To be done

     Representation    77      1 modes -  To be done

     Representation    78      1 modes -  To be done

     Representation    79      1 modes -  To be done

     Representation    80      1 modes -  To be done

     Representation    81      1 modes -  To be done

     Representation    82      1 modes -  To be done

     Representation    83      1 modes -  To be done

     Representation    84      1 modes -  To be done

     Representation    85      1 modes -  To be done

     Representation    86      1 modes -  To be done

     Representation    87      1 modes -  To be done

     Representation    88      1 modes -  To be done

     Representation    89      1 modes -  To be done

     Representation    90      1 modes -  To be done

     Representation    91      1 modes -  To be done

     Representation    92      1 modes -  To be done

     Representation    93      1 modes -  To be done

     Representation    94      1 modes -  To be done

     Representation    95      1 modes -  To be done

     Representation    96      1 modes -  To be done

     Representation    97      1 modes -  To be done

     Representation    98      1 modes -  To be done

     Representation    99      1 modes -  To be done

     Representation   100      1 modes -  To be done

     Representation   101      1 modes -  To be done

     Representation   102      1 modes -  To be done

     Representation   103      1 modes -  To be done

     Representation   104      1 modes -  To be done

     Representation   105      1 modes -  To be done

     Representation   106      1 modes -  To be done

     Representation   107      1 modes -  To be done

     Representation   108      1 modes -  To be done

     Representation   109      1 modes -  To be done

     Representation   110      1 modes -  To be done

     Representation   111      1 modes -  To be done

     Representation   112      1 modes -  To be done

     Representation   113      1 modes -  To be done

     Representation   114      1 modes -  To be done

     Representation   115      1 modes -  To be done

     Representation   116      1 modes -  To be done

     Representation   117      1 modes -  To be done

     Representation   118      1 modes -  To be done

     Representation   119      1 modes -  To be done

     Representation   120      1 modes -  To be done

     Representation   121      1 modes -  To be done

     Representation   122      1 modes -  To be done

     Representation   123      1 modes -  To be done

     Representation   124      1 modes -  To be done

     Representation   125      1 modes -  To be done

     Representation   126      1 modes -  To be done

     Representation   127      1 modes -  To be done

     Representation   128      1 modes -  To be done

     Representation   129      1 modes -  To be done

     Representation   130      1 modes -  To be done

     Representation   131      1 modes -  To be done

     Representation   132      1 modes -  To be done

     Representation   133      1 modes -  To be done

     Representation   134      1 modes -  To be done

     Representation   135      1 modes -  To be done

     Representation   136      1 modes -  To be done

     Representation   137      1 modes -  To be done

     Representation   138      1 modes -  To be done

     Representation   139      1 modes -  To be done

     Representation   140      1 modes -  To be done

     Representation   141      1 modes -  To be done

     Representation   142      1 modes -  To be done

     Representation   143      1 modes -  To be done

     Representation   144      1 modes -  To be done

     Representation   145      1 modes -  To be done

     Representation   146      1 modes -  To be done

     Representation   147      1 modes -  To be done

     Representation   148      1 modes -  To be done

     Representation   149      1 modes -  To be done

     Representation   150      1 modes -  To be done



     Alpha used in Ewald sum =   2.7000
     PHONON       :      8.67s CPU     13.17s WALL


     Electric Fields Calculation

      iter #   1 total cpu time :   138.4 secs   av.it.:   8.0
      thresh= 1.000E-02 alpha_mix =  0.300 |ddv_scf|^2 =  2.335E-08

      iter #   2 total cpu time :   192.8 secs   av.it.:  16.0
      thresh= 1.528E-05 alpha_mix =  0.300 |ddv_scf|^2 =  5.453E-10

      iter #   3 total cpu time :   249.2 secs   av.it.:  16.9
      thresh= 2.335E-06 alpha_mix =  0.300 |ddv_scf|^2 =  1.041E-10

      iter #   4 total cpu time :   308.1 secs   av.it.:  17.9
      thresh= 1.021E-06 alpha_mix =  0.300 |ddv_scf|^2 =  6.291E-12

      iter #   5 total cpu time :   367.5 secs   av.it.:  18.0
      thresh= 2.508E-07 alpha_mix =  0.300 |ddv_scf|^2 =  9.270E-13

      iter #   6 total cpu time :   426.7 secs   av.it.:  18.0
      thresh= 9.628E-08 alpha_mix =  0.300 |ddv_scf|^2 =  9.248E-14

      iter #   7 total cpu time :   486.0 secs   av.it.:  17.9
      thresh= 3.041E-08 alpha_mix =  0.300 |ddv_scf|^2 =  1.683E-14

      iter #   8 total cpu time :   543.8 secs   av.it.:  17.0
      thresh= 1.297E-08 alpha_mix =  0.300 |ddv_scf|^2 =  1.993E-15

      iter #   9 total cpu time :   601.3 secs   av.it.:  17.2
      thresh= 4.464E-09 alpha_mix =  0.300 |ddv_scf|^2 =  2.066E-16

      iter #  10 total cpu time :   660.1 secs   av.it.:  17.7
      thresh= 1.437E-09 alpha_mix =  0.300 |ddv_scf|^2 =  3.025E-17

      iter #  11 total cpu time :   719.6 secs   av.it.:  17.9
      thresh= 5.500E-10 alpha_mix =  0.300 |ddv_scf|^2 =  4.271E-18

      iter #  12 total cpu time :   780.0 secs   av.it.:  18.2
      thresh= 2.067E-10 alpha_mix =  0.300 |ddv_scf|^2 =  2.205E-19

     End of electric fields calculation

          Dielectric constant in cartesian axis 

          (       3.553026133      -0.000000000       0.000000000 )
          (      -0.000000000       3.563408874       0.000000000 )
          (       0.000000000       0.000000000       3.636704241 )

          Effective charges (d Force / dE) in cartesian axis without acoustic sum rule applied (asr)

           atom      1   Pb Mean Z*:        3.24372
      Ex  (        2.92694       -0.00000        0.00000 )
      Ey  (        0.00000        3.01165        0.00000 )
      Ez  (        0.00000        0.00000        3.79256 )
           atom      2   Pb Mean Z*:        3.24372
      Ex  (        2.92694       -0.00000        0.00000 )
      Ey  (        0.00000        3.01165        0.00000 )
      Ez  (        0.00000        0.00000        3.79256 )
           atom      3   Br Mean Z*:       -1.29640
      Ex  (       -0.66862       -0.07342       -0.00000 )
      Ey  (       -0.08156       -1.80731        0.00000 )
      Ez  (       -0.00000        0.00000       -1.41329 )
           atom      4   Br Mean Z*:       -1.29640
      Ex  (       -0.66862        0.07342        0.00000 )
      Ey  (        0.08156       -1.80731       -0.00000 )
      Ez  (       -0.00000        0.00000       -1.41329 )
           atom      5   Br Mean Z*:       -1.29640
      Ex  (       -0.66862       -0.07342        0.00000 )
      Ey  (       -0.08156       -1.80731        0.00000 )
      Ez  (        0.00000        0.00000       -1.41329 )
           atom      6   Br Mean Z*:       -1.29640
      Ex  (       -0.66862        0.07342       -0.00000 )
      Ey  (        0.08156       -1.80731       -0.00000 )
      Ez  (        0.00000       -0.00000       -1.41329 )
           atom      7   Br Mean Z*:       -1.33893
      Ex  (       -1.32336       -0.00000       -0.00000 )
      Ey  (        0.00000       -0.53802       -0.00000 )
      Ez  (       -0.00000       -0.00000       -2.15542 )
           atom      8   Br Mean Z*:       -1.33893
      Ex  (       -1.32336        0.00000        0.00000 )
      Ey  (        0.00000       -0.53802       -0.00000 )
      Ez  (        0.00000       -0.00000       -2.15542 )
           atom      9   Br Mean Z*:       -1.42789
      Ex  (       -2.27628        0.00000       -0.00000 )
      Ey  (        0.00000       -0.95520        0.00000 )
      Ez  (       -0.00000       -0.00000       -1.05218 )
           atom     10   Br Mean Z*:       -1.42789
      Ex  (       -2.27628       -0.00000        0.00000 )
      Ey  (        0.00000       -0.95520       -0.00000 )
      Ez  (       -0.00000       -0.00000       -1.05218 )
           atom     11   C  Mean Z*:        0.17181
      Ex  (        0.36183       -0.08023       -0.00000 )
      Ey  (       -0.07063        0.05062        0.00000 )
      Ez  (       -0.00000        0.00000        0.10297 )
           atom     12   C  Mean Z*:        0.17181
      Ex  (        0.36183        0.08023       -0.00000 )
      Ey  (        0.07063        0.05062       -0.00000 )
      Ez  (        0.00000       -0.00000        0.10297 )
           atom     13   C  Mean Z*:        0.17181
      Ex  (        0.36183       -0.08023        0.00000 )
      Ey  (       -0.07063        0.05062        0.00000 )
      Ez  (       -0.00000        0.00000        0.10297 )
           atom     14   C  Mean Z*:        0.17181
      Ex  (        0.36183        0.08023       -0.00000 )
      Ey  (        0.07063        0.05062        0.00000 )
      Ez  (        0.00000        0.00000        0.10297 )
           atom     15   C  Mean Z*:        0.00151
      Ex  (       -0.01079        0.20363       -0.00000 )
      Ey  (        0.27129        0.23058        0.00000 )
      Ez  (        0.00000       -0.00000       -0.21527 )
           atom     16   C  Mean Z*:        0.00151
      Ex  (       -0.01079       -0.20363        0.00000 )
      Ey  (       -0.27129        0.23058       -0.00000 )
      Ez  (        0.00000        0.00000       -0.21527 )
           atom     17   C  Mean Z*:        0.00151
      Ex  (       -0.01079        0.20363        0.00000 )
      Ey  (        0.27129        0.23058        0.00000 )
      Ez  (        0.00000        0.00000       -0.21527 )
           atom     18   C  Mean Z*:        0.00151
      Ex  (       -0.01079       -0.20363       -0.00000 )
      Ey  (       -0.27129        0.23058        0.00000 )
      Ez  (       -0.00000        0.00000       -0.21527 )
           atom     19   H  Mean Z*:        0.12155
      Ex  (        0.10897       -0.02492        0.02838 )
      Ey  (       -0.04399        0.12713       -0.05407 )
      Ez  (       -0.02657       -0.04235        0.12855 )
           atom     20   H  Mean Z*:        0.12155
      Ex  (        0.10897        0.02492       -0.02838 )
      Ey  (        0.04399        0.12713       -0.05407 )
      Ez  (        0.02657       -0.04235        0.12855 )
           atom     21   H  Mean Z*:        0.12155
      Ex  (        0.10897       -0.02492       -0.02838 )
      Ey  (       -0.04399        0.12713        0.05407 )
      Ez  (        0.02657        0.04235        0.12855 )
           atom     22   H  Mean Z*:        0.12155
      Ex  (        0.10897        0.02492        0.02838 )
      Ey  (        0.04399        0.12713        0.05407 )
      Ez  (       -0.02657        0.04235        0.12855 )
           atom     23   H  Mean Z*:        0.12155
      Ex  (        0.10897       -0.02492        0.02838 )
      Ey  (       -0.04399        0.12713       -0.05407 )
      Ez  (       -0.02657       -0.04235        0.12855 )
           atom     24   H  Mean Z*:        0.12155
      Ex  (        0.10897        0.02492       -0.02838 )
      Ey  (        0.04399        0.12713       -0.05407 )
      Ez  (        0.02657       -0.04235        0.12855 )
           atom     25   H  Mean Z*:        0.12155
      Ex  (        0.10897       -0.02492       -0.02838 )
      Ey  (       -0.04399        0.12713        0.05407 )
      Ez  (        0.02657        0.04235        0.12855 )
           atom     26   H  Mean Z*:        0.12155
      Ex  (        0.10897        0.02492        0.02838 )
      Ey  (        0.04399        0.12713        0.05407 )
      Ez  (       -0.02657        0.04235        0.12855 )
           atom     27   H  Mean Z*:        0.14579
      Ex  (        0.09812        0.06206       -0.00000 )
      Ey  (       -0.02455        0.21785       -0.00000 )
      Ez  (        0.00000        0.00000        0.12139 )
           atom     28   H  Mean Z*:        0.14579
      Ex  (        0.09812       -0.06206       -0.00000 )
      Ey  (        0.02455        0.21785        0.00000 )
      Ez  (        0.00000        0.00000        0.12139 )
           atom     29   H  Mean Z*:        0.14579
      Ex  (        0.09812        0.06206       -0.00000 )
      Ey  (       -0.02455        0.21785       -0.00000 )
      Ez  (        0.00000       -0.00000        0.12139 )
           atom     30   H  Mean Z*:        0.14579
      Ex  (        0.09812       -0.06206       -0.00000 )
      Ey  (        0.02455        0.21785        0.00000 )
      Ez  (        0.00000       -0.00000        0.12139 )
           atom     31   H  Mean Z*:        0.17868
      Ex  (        0.15743       -0.13098        0.13475 )
      Ey  (       -0.05077        0.16188       -0.05847 )
      Ez  (        0.05389       -0.08138        0.21673 )
           atom     32   H  Mean Z*:        0.17868
      Ex  (        0.15743        0.13098       -0.13475 )
      Ey  (        0.05077        0.16188       -0.05847 )
      Ez  (       -0.05389       -0.08138        0.21673 )
           atom     33   H  Mean Z*:        0.17868
      Ex  (        0.15743       -0.13098       -0.13475 )
      Ey  (       -0.05077        0.16188        0.05847 )
      Ez  (       -0.05389        0.08138        0.21673 )
           atom     34   H  Mean Z*:        0.17868
      Ex  (        0.15743        0.13098        0.13475 )
      Ey  (        0.05077        0.16188        0.05847 )
      Ez  (        0.05389        0.08138        0.21673 )
           atom     35   H  Mean Z*:        0.17868
      Ex  (        0.15743       -0.13098        0.13475 )
      Ey  (       -0.05077        0.16188       -0.05847 )
      Ez  (        0.05389       -0.08138        0.21673 )
           atom     36   H  Mean Z*:        0.17868
      Ex  (        0.15743        0.13098       -0.13475 )
      Ey  (        0.05077        0.16188       -0.05847 )
      Ez  (       -0.05389       -0.08138        0.21673 )
           atom     37   H  Mean Z*:        0.17868
      Ex  (        0.15743       -0.13098       -0.13475 )
      Ey  (       -0.05077        0.16188        0.05847 )
      Ez  (       -0.05389        0.08138        0.21673 )
           atom     38   H  Mean Z*:        0.17868
      Ex  (        0.15743        0.13098        0.13475 )
      Ey  (        0.05077        0.16188        0.05847 )
      Ez  (        0.05389        0.08138        0.21673 )
           atom     39   H  Mean Z*:        0.58651
      Ex  (        0.28164       -0.10741        0.09172 )
      Ey  (       -0.12931        0.29844       -0.50573 )
      Ez  (        0.08550       -0.40028        1.17946 )
           atom     40   H  Mean Z*:        0.58651
      Ex  (        0.28164        0.10741       -0.09172 )
      Ey  (        0.12931        0.29844       -0.50573 )
      Ez  (       -0.08550       -0.40028        1.17946 )
           atom     41   H  Mean Z*:        0.58651
      Ex  (        0.28164       -0.10741       -0.09172 )
      Ey  (       -0.12931        0.29844        0.50573 )
      Ez  (       -0.08550        0.40028        1.17946 )
           atom     42   H  Mean Z*:        0.58651
      Ex  (        0.28164        0.10741        0.09172 )
      Ey  (        0.12931        0.29844        0.50573 )
      Ez  (        0.08550        0.40028        1.17946 )
           atom     43   H  Mean Z*:        0.58651
      Ex  (        0.28164       -0.10741        0.09172 )
      Ey  (       -0.12931        0.29844       -0.50573 )
      Ez  (        0.08550       -0.40028        1.17946 )
           atom     44   H  Mean Z*:        0.58651
      Ex  (        0.28164        0.10741       -0.09172 )
      Ey  (        0.12931        0.29844       -0.50573 )
      Ez  (       -0.08550       -0.40028        1.17946 )
           atom     45   H  Mean Z*:        0.58651
      Ex  (        0.28164       -0.10741       -0.09172 )
      Ey  (       -0.12931        0.29844        0.50573 )
      Ez  (       -0.08550        0.40028        1.17946 )
           atom     46   H  Mean Z*:        0.58651
      Ex  (        0.28164        0.10741        0.09172 )
      Ey  (        0.12931        0.29844        0.50573 )
      Ez  (        0.08550        0.40028        1.17946 )
           atom     47   N  Mean Z*:       -0.82592
      Ex  (       -0.53993        0.12435        0.00000 )
      Ey  (        0.08336       -0.62551        0.00000 )
      Ez  (        0.00000        0.00000       -1.31231 )
           atom     48   N  Mean Z*:       -0.82592
      Ex  (       -0.53993       -0.12435       -0.00000 )
      Ey  (       -0.08336       -0.62551       -0.00000 )
      Ez  (       -0.00000       -0.00000       -1.31231 )
           atom     49   N  Mean Z*:       -0.82592
      Ex  (       -0.53993        0.12435       -0.00000 )
      Ey  (        0.08336       -0.62551       -0.00000 )
      Ez  (       -0.00000       -0.00000       -1.31231 )
           atom     50   N  Mean Z*:       -0.82592
      Ex  (       -0.53993       -0.12435       -0.00000 )
      Ey  (       -0.08336       -0.62551        0.00000 )
      Ez  (        0.00000       -0.00000       -1.31231 )

          Effective charges Sum: Mean:        0.83487
              0.00140        0.00000        0.00000
             -0.00000        0.00144       -0.00000
              0.00000        0.00000        2.50178

          Effective charges (d Force / dE) in cartesian axis with asr applied: 
           atom      1   Pb Mean Z*:        3.22702
      E*x (        2.92691       -0.00000        0.00000 )
      E*y (        0.00000        3.01162        0.00000 )
      E*z (        0.00000        0.00000        3.74253 )
           atom      2   Pb Mean Z*:        3.22702
      E*x (        2.92691       -0.00000        0.00000 )
      E*y (        0.00000        3.01162        0.00000 )
      E*z (        0.00000        0.00000        3.74253 )
           atom      3   Br Mean Z*:       -1.31310
      E*x (       -0.66864       -0.07342       -0.00000 )
      E*y (       -0.08156       -1.80734        0.00000 )
      E*z (       -0.00000        0.00000       -1.46333 )
           atom      4   Br Mean Z*:       -1.31310
      E*x (       -0.66864        0.07342        0.00000 )
      E*y (        0.08156       -1.80734       -0.00000 )
      E*z (       -0.00000        0.00000       -1.46333 )
           atom      5   Br Mean Z*:       -1.31310
      E*x (       -0.66864       -0.07342        0.00000 )
      E*y (       -0.08156       -1.80734        0.00000 )
      E*z (        0.00000        0.00000       -1.46333 )
           atom      6   Br Mean Z*:       -1.31310
      E*x (       -0.66864        0.07342       -0.00000 )
      E*y (        0.08156       -1.80734       -0.00000 )
      E*z (        0.00000       -0.00000       -1.46333 )
           atom      7   Br Mean Z*:       -1.35563
      E*x (       -1.32338       -0.00000       -0.00000 )
      E*y (        0.00000       -0.53805       -0.00000 )
      E*z (       -0.00000       -0.00000       -2.20546 )
           atom      8   Br Mean Z*:       -1.35563
      E*x (       -1.32338        0.00000        0.00000 )
      E*y (        0.00000       -0.53805       -0.00000 )
      E*z (        0.00000       -0.00000       -2.20546 )
           atom      9   Br Mean Z*:       -1.44459
      E*x (       -2.27631        0.00000       -0.00000 )
      E*y (        0.00000       -0.95523        0.00000 )
      E*z (       -0.00000       -0.00000       -1.10222 )
           atom     10   Br Mean Z*:       -1.44459
      E*x (       -2.27631       -0.00000        0.00000 )
      E*y (        0.00000       -0.95523       -0.00000 )
      E*z (       -0.00000       -0.00000       -1.10222 )
           atom     11   C  Mean Z*:        0.15511
      E*x (        0.36181       -0.08023       -0.00000 )
      E*y (       -0.07063        0.05059        0.00000 )
      E*z (       -0.00000        0.00000        0.05293 )
           atom     12   C  Mean Z*:        0.15511
      E*x (        0.36181        0.08023       -0.00000 )
      E*y (        0.07063        0.05059       -0.00000 )
      E*z (        0.00000       -0.00000        0.05293 )
           atom     13   C  Mean Z*:        0.15511
      E*x (        0.36181       -0.08023        0.00000 )
      E*y (       -0.07063        0.05059        0.00000 )
      E*z (       -0.00000        0.00000        0.05293 )
           atom     14   C  Mean Z*:        0.15511
      E*x (        0.36181        0.08023       -0.00000 )
      E*y (        0.07063        0.05059        0.00000 )
      E*z (        0.00000        0.00000        0.05293 )
           atom     15   C  Mean Z*:       -0.01519
      E*x (       -0.01081        0.20363       -0.00000 )
      E*y (        0.27129        0.23056        0.00000 )
      E*z (        0.00000       -0.00000       -0.26530 )
           atom     16   C  Mean Z*:       -0.01519
      E*x (       -0.01081       -0.20363        0.00000 )
      E*y (       -0.27129        0.23056       -0.00000 )
      E*z (        0.00000        0.00000       -0.26530 )
           atom     17   C  Mean Z*:       -0.01519
      E*x (       -0.01081        0.20363        0.00000 )
      E*y (        0.27129        0.23056        0.00000 )
      E*z (        0.00000        0.00000       -0.26530 )
           atom     18   C  Mean Z*:       -0.01519
      E*x (       -0.01081       -0.20363       -0.00000 )
      E*y (       -0.27129        0.23056        0.00000 )
      E*z (       -0.00000        0.00000       -0.26530 )
           atom     19   H  Mean Z*:        0.10485
      E*x (        0.10894       -0.02492        0.02838 )
      E*y (       -0.04399        0.12711       -0.05407 )
      E*z (       -0.02657       -0.04235        0.07851 )
           atom     20   H  Mean Z*:        0.10485
      E*x (        0.10894        0.02492       -0.02838 )
      E*y (        0.04399        0.12711       -0.05407 )
      E*z (        0.02657       -0.04235        0.07851 )
           atom     21   H  Mean Z*:        0.10485
      E*x (        0.10894       -0.02492       -0.02838 )
      E*y (       -0.04399        0.12711        0.05407 )
      E*z (        0.02657        0.04235        0.07851 )
           atom     22   H  Mean Z*:        0.10485
      E*x (        0.10894        0.02492        0.02838 )
      E*y (        0.04399        0.12711        0.05407 )
      E*z (       -0.02657        0.04235        0.07851 )
           atom     23   H  Mean Z*:        0.10485
      E*x (        0.10894       -0.02492        0.02838 )
      E*y (       -0.04399        0.12711       -0.05407 )
      E*z (       -0.02657       -0.04235        0.07851 )
           atom     24   H  Mean Z*:        0.10485
      E*x (        0.10894        0.02492       -0.02838 )
      E*y (        0.04399        0.12711       -0.05407 )
      E*z (        0.02657       -0.04235        0.07851 )
           atom     25   H  Mean Z*:        0.10485
      E*x (        0.10894       -0.02492       -0.02838 )
      E*y (       -0.04399        0.12711        0.05407 )
      E*z (        0.02657        0.04235        0.07851 )
           atom     26   H  Mean Z*:        0.10485
      E*x (        0.10894        0.02492        0.02838 )
      E*y (        0.04399        0.12711        0.05407 )
      E*z (       -0.02657        0.04235        0.07851 )
           atom     27   H  Mean Z*:        0.12909
      E*x (        0.09809        0.06206       -0.00000 )
      E*y (       -0.02455        0.21782       -0.00000 )
      E*z (       -0.00000        0.00000        0.07135 )
           atom     28   H  Mean Z*:        0.12909
      E*x (        0.09809       -0.06206       -0.00000 )
      E*y (        0.02455        0.21782        0.00000 )
      E*z (        0.00000        0.00000        0.07135 )
           atom     29   H  Mean Z*:        0.12909
      E*x (        0.09809        0.06206       -0.00000 )
      E*y (       -0.02455        0.21782       -0.00000 )
      E*z (       -0.00000       -0.00000        0.07135 )
           atom     30   H  Mean Z*:        0.12909
      E*x (        0.09809       -0.06206       -0.00000 )
      E*y (        0.02455        0.21782        0.00000 )
      E*z (        0.00000       -0.00000        0.07135 )
           atom     31   H  Mean Z*:        0.16198
      E*x (        0.15740       -0.13098        0.13475 )
      E*y (       -0.05077        0.16185       -0.05847 )
      E*z (        0.05389       -0.08138        0.16670 )
           atom     32   H  Mean Z*:        0.16198
      E*x (        0.15740        0.13098       -0.13475 )
      E*y (        0.05077        0.16185       -0.05847 )
      E*z (       -0.05389       -0.08138        0.16670 )
           atom     33   H  Mean Z*:        0.16198
      E*x (        0.15740       -0.13098       -0.13475 )
      E*y (       -0.05077        0.16185        0.05847 )
      E*z (       -0.05389        0.08138        0.16670 )
           atom     34   H  Mean Z*:        0.16198
      E*x (        0.15740        0.13098        0.13475 )
      E*y (        0.05077        0.16185        0.05847 )
      E*z (        0.05389        0.08138        0.16670 )
           atom     35   H  Mean Z*:        0.16198
      E*x (        0.15740       -0.13098        0.13475 )
      E*y (       -0.05077        0.16185       -0.05847 )
      E*z (        0.05389       -0.08138        0.16670 )
           atom     36   H  Mean Z*:        0.16198
      E*x (        0.15740        0.13098       -0.13475 )
      E*y (        0.05077        0.16185       -0.05847 )
      E*z (       -0.05389       -0.08138        0.16670 )
           atom     37   H  Mean Z*:        0.16198
      E*x (        0.15740       -0.13098       -0.13475 )
      E*y (       -0.05077        0.16185        0.05847 )
      E*z (       -0.05389        0.08138        0.16670 )
           atom     38   H  Mean Z*:        0.16198
      E*x (        0.15740        0.13098        0.13475 )
      E*y (        0.05077        0.16185        0.05847 )
      E*z (        0.05389        0.08138        0.16670 )
           atom     39   H  Mean Z*:        0.56982
      E*x (        0.28161       -0.10741        0.09172 )
      E*y (       -0.12931        0.29841       -0.50573 )
      E*z (        0.08550       -0.40028        1.12943 )
           atom     40   H  Mean Z*:        0.56982
      E*x (        0.28161        0.10741       -0.09172 )
      E*y (        0.12931        0.29841       -0.50573 )
      E*z (       -0.08550       -0.40028        1.12943 )
           atom     41   H  Mean Z*:        0.56982
      E*x (        0.28161       -0.10741       -0.09172 )
      E*y (       -0.12931        0.29841        0.50573 )
      E*z (       -0.08550        0.40028        1.12943 )
           atom     42   H  Mean Z*:        0.56982
      E*x (        0.28161        0.10741        0.09172 )
      E*y (        0.12931        0.29841        0.50573 )
      E*z (        0.08550        0.40028        1.12943 )
           atom     43   H  Mean Z*:        0.56982
      E*x (        0.28161       -0.10741        0.09172 )
      E*y (       -0.12931        0.29841       -0.50573 )
      E*z (        0.08550       -0.40028        1.12943 )
           atom     44   H  Mean Z*:        0.56982
      E*x (        0.28161        0.10741       -0.09172 )
      E*y (        0.12931        0.29841       -0.50573 )
      E*z (       -0.08550       -0.40028        1.12943 )
           atom     45   H  Mean Z*:        0.56982
      E*x (        0.28161       -0.10741       -0.09172 )
      E*y (       -0.12931        0.29841        0.50573 )
      E*z (       -0.08550        0.40028        1.12943 )
           atom     46   H  Mean Z*:        0.56982
      E*x (        0.28161        0.10741        0.09172 )
      E*y (        0.12931        0.29841        0.50573 )
      E*z (        0.08550        0.40028        1.12943 )
           atom     47   N  Mean Z*:       -0.84261
      E*x (       -0.53996        0.12435        0.00000 )
      E*y (        0.08336       -0.62554        0.00000 )
      E*z (        0.00000        0.00000       -1.36235 )
           atom     48   N  Mean Z*:       -0.84261
      E*x (       -0.53996       -0.12435       -0.00000 )
      E*y (       -0.08336       -0.62554       -0.00000 )
      E*z (       -0.00000       -0.00000       -1.36235 )
           atom     49   N  Mean Z*:       -0.84261
      E*x (       -0.53996        0.12435       -0.00000 )
      E*y (        0.08336       -0.62554       -0.00000 )
      E*z (       -0.00000       -0.00000       -1.36235 )
           atom     50   N  Mean Z*:       -0.84261
      E*x (       -0.53996       -0.12435       -0.00000 )
      E*y (       -0.08336       -0.62554        0.00000 )
      E*z (        0.00000       -0.00000       -1.36235 )

     Calling punch_plot_e
     Writing on file  drho                                                                                                                                                                                                                                                            

     Computing Pc [DH,Drho] |psi> 
     Subspace diagonalization in iterative solution of the eigenvalue problem:
     a serial algorithm will be used


     Derivative coefficient:  0.001000    Threshold: 1.00E-12
     Non-scf  u_k: avg # of iterations = 26.3
     Non-scf Du_k: avg # of iterations = 43.0

          Dielectric constant from finite-differences

          (       3.552974066      -0.000000000       0.000000000 )
          (      -0.000000000       3.563333705       0.000000000 )
          (       0.000000000       0.000000000       3.637501503 )

     Computing Second order response 


      iter #   1   av.it.:  11.3
      thresh= 1.000E-02 alpha_mix =  0.300 |ddv_scf|^2 =  8.271E-08


      iter #   2   av.it.:  16.8
      thresh= 2.876E-05 alpha_mix =  0.300 |ddv_scf|^2 =  2.739E-09


      iter #   3   av.it.:  17.5
      thresh= 5.234E-06 alpha_mix =  0.300 |ddv_scf|^2 =  7.790E-10


      iter #   4   av.it.:  18.0
      thresh= 2.791E-06 alpha_mix =  0.300 |ddv_scf|^2 =  1.316E-10


      iter #   5   av.it.:  18.5
      thresh= 1.147E-06 alpha_mix =  0.300 |ddv_scf|^2 =  7.720E-12


      iter #   6   av.it.:  18.3
      thresh= 2.778E-07 alpha_mix =  0.300 |ddv_scf|^2 =  5.795E-13


      iter #   7   av.it.:  18.2
      thresh= 7.612E-08 alpha_mix =  0.300 |ddv_scf|^2 =  1.170E-13


      iter #   8   av.it.:  18.8
      thresh= 3.420E-08 alpha_mix =  0.300 |ddv_scf|^2 =  8.476E-15


      iter #   9   av.it.:  18.6
      thresh= 9.206E-09 alpha_mix =  0.300 |ddv_scf|^2 =  7.877E-16


      iter #  10   av.it.:  18.5
      thresh= 2.807E-09 alpha_mix =  0.300 |ddv_scf|^2 =  1.407E-16


      iter #  11   av.it.:  18.5
      thresh= 1.186E-09 alpha_mix =  0.300 |ddv_scf|^2 =  1.990E-17


      iter #  12   av.it.:  18.6
      thresh= 4.461E-10 alpha_mix =  0.300 |ddv_scf|^2 =  3.407E-18


      iter #  13   av.it.:  18.4
      thresh= 1.846E-10 alpha_mix =  0.300 |ddv_scf|^2 =  9.397E-19

          Raman tensor (au^-1) in cartesian axis 

           atom      1
          (      -0.112366700       0.000000000      -0.000000000 )
          (       0.000000000      -0.053598386      -0.000000000 )
          (      -0.000000000      -0.000000000       0.077174799 )

          (       0.000000000      -0.002761786      -0.000000000 )
          (      -0.002761786      -0.000000000      -0.000000000 )
          (      -0.000000000      -0.000000000       0.000000000 )

          (       0.000000000      -0.000000000      -0.066712982 )
          (      -0.000000000      -0.000000000       0.000000000 )
          (      -0.066712982       0.000000000      -0.000000000 )

           atom      2
          (       0.112366700       0.000000000      -0.000000000 )
          (       0.000000000       0.053598386      -0.000000000 )
          (      -0.000000000      -0.000000000      -0.077174799 )

          (       0.000000000       0.002761786      -0.000000000 )
          (       0.002761786       0.000000000      -0.000000000 )
          (      -0.000000000      -0.000000000       0.000000000 )

          (      -0.000000000      -0.000000000       0.066712982 )
          (      -0.000000000      -0.000000000       0.000000000 )
          (       0.066712982       0.000000000      -0.000000000 )

           atom      3
          (       0.005575231       0.038719189      -0.000000000 )
          (       0.038719189      -0.010441189       0.000000000 )
          (      -0.000000000       0.000000000      -0.005583682 )

          (       0.033062625       0.001775391       0.000000000 )
          (       0.001775391       0.026041289       0.000000000 )
          (       0.000000000       0.000000000       0.036938706 )

          (       0.000000000       0.000000000      -0.010116164 )
          (       0.000000000      -0.000000000       0.047710888 )
          (      -0.010116164       0.047710888       0.000000000 )

           atom      4
          (       0.005575231      -0.038719189      -0.000000000 )
          (      -0.038719189      -0.010441189      -0.000000000 )
          (      -0.000000000      -0.000000000      -0.005583682 )

          (      -0.033062625       0.001775391       0.000000000 )
          (       0.001775391      -0.026041289       0.000000000 )
          (       0.000000000       0.000000000      -0.036938706 )

          (      -0.000000000       0.000000000      -0.010116164 )
          (       0.000000000       0.000000000      -0.047710888 )
          (      -0.010116164      -0.047710888       0.000000000 )

           atom      5
          (      -0.005575231      -0.038719189       0.000000000 )
          (      -0.038719189       0.010441189       0.000000000 )
          (       0.000000000       0.000000000       0.005583682 )

          (      -0.033062625      -0.001775391       0.000000000 )
          (      -0.001775391      -0.026041289      -0.000000000 )
          (       0.000000000      -0.000000000      -0.036938706 )

          (       0.000000000       0.000000000       0.010116164 )
          (       0.000000000      -0.000000000      -0.047710888 )
          (       0.010116164      -0.047710888       0.000000000 )

           atom      6
          (      -0.005575231       0.038719189       0.000000000 )
          (       0.038719189       0.010441189       0.000000000 )
          (       0.000000000      -0.000000000       0.005583682 )

          (       0.033062625      -0.001775391      -0.000000000 )
          (      -0.001775391       0.026041289      -0.000000000 )
          (      -0.000000000      -0.000000000       0.036938706 )

          (       0.000000000      -0.000000000       0.010116164 )
          (      -0.000000000      -0.000000000       0.047710888 )
          (       0.010116164       0.047710888       0.000000000 )

           atom      7
          (       0.034491737      -0.000000000      -0.000000000 )
          (      -0.000000000      -0.019010038       0.000000000 )
          (      -0.000000000       0.000000000      -0.243729265 )

          (       0.000000000      -0.024810735       0.000000000 )
          (      -0.024810735       0.000000000       0.000000000 )
          (       0.000000000       0.000000000      -0.000000000 )

          (      -0.000000000       0.000000000      -0.046780922 )
          (       0.000000000      -0.000000000       0.000000000 )
          (      -0.046780922       0.000000000      -0.000000000 )

           atom      8
          (      -0.034491737      -0.000000000      -0.000000000 )
          (       0.000000000       0.019010038      -0.000000000 )
          (      -0.000000000      -0.000000000       0.243729265 )

          (       0.000000000       0.024810735      -0.000000000 )
          (       0.024810735       0.000000000      -0.000000000 )
          (      -0.000000000      -0.000000000       0.000000000 )

          (      -0.000000000      -0.000000000       0.046780922 )
          (      -0.000000000      -0.000000000       0.000000000 )
          (       0.046780922       0.000000000      -0.000000000 )

           atom      9
          (       0.103010331       0.000000000       0.000000000 )
          (       0.000000000       0.082554952      -0.000000000 )
          (       0.000000000      -0.000000000       0.040685499 )

          (      -0.000000000       0.078822014       0.000000000 )
          (       0.078822014      -0.000000000       0.000000000 )
          (       0.000000000      -0.000000000      -0.000000000 )

          (       0.000000000      -0.000000000       0.055002679 )
          (      -0.000000000      -0.000000000       0.000000000 )
          (       0.055002679       0.000000000       0.000000000 )

           atom     10
          (      -0.103010331       0.000000000      -0.000000000 )
          (       0.000000000      -0.082554952       0.000000000 )
          (      -0.000000000      -0.000000000      -0.040685499 )

          (       0.000000000      -0.078822014       0.000000000 )
          (      -0.078822014       0.000000000       0.000000000 )
          (       0.000000000       0.000000000      -0.000000000 )

          (      -0.000000000       0.000000000      -0.055002679 )
          (       0.000000000      -0.000000000      -0.000000000 )
          (      -0.055002679      -0.000000000       0.000000000 )

           atom     11
          (      -0.025805007      -0.001127528      -0.000000000 )
          (      -0.001127528       0.006582822      -0.000000000 )
          (      -0.000000000      -0.000000000       0.031919495 )

          (      -0.009273899       0.016506307      -0.000000000 )
          (       0.016506307      -0.029387070       0.000000000 )
          (      -0.000000000       0.000000000      -0.046030749 )

          (      -0.000000000       0.000000000       0.034903146 )
          (      -0.000000000       0.000000000      -0.044218264 )
          (       0.034903146      -0.044218264       0.000000000 )

           atom     12
          (      -0.025805007       0.001127528      -0.000000000 )
          (       0.001127528       0.006582822       0.000000000 )
          (      -0.000000000       0.000000000       0.031919495 )

          (       0.009273899       0.016506307       0.000000000 )
          (       0.016506307       0.029387070      -0.000000000 )
          (       0.000000000      -0.000000000       0.046030749 )

          (       0.000000000       0.000000000       0.034903146 )
          (       0.000000000       0.000000000       0.044218264 )
          (       0.034903146       0.044218264      -0.000000000 )

           atom     13
          (       0.025805007       0.001127528      -0.000000000 )
          (       0.001127528      -0.006582822       0.000000000 )
          (      -0.000000000       0.000000000      -0.031919495 )

          (       0.009273899      -0.016506307      -0.000000000 )
          (      -0.016506307       0.029387070      -0.000000000 )
          (      -0.000000000      -0.000000000       0.046030749 )

          (       0.000000000       0.000000000      -0.034903146 )
          (       0.000000000      -0.000000000       0.044218264 )
          (      -0.034903146       0.044218264      -0.000000000 )

           atom     14
          (       0.025805007      -0.001127528       0.000000000 )
          (      -0.001127528      -0.006582822       0.000000000 )
          (       0.000000000       0.000000000      -0.031919495 )

          (      -0.009273899      -0.016506307       0.000000000 )
          (      -0.016506307      -0.029387070       0.000000000 )
          (       0.000000000       0.000000000      -0.046030749 )

          (       0.000000000       0.000000000      -0.034903146 )
          (       0.000000000       0.000000000      -0.044218264 )
          (      -0.034903146      -0.044218264       0.000000000 )

           atom     15
          (      -0.063691424       0.007992700      -0.000000000 )
          (       0.007992700      -0.009523159      -0.000000000 )
          (      -0.000000000      -0.000000000       0.031482351 )

          (      -0.004422079       0.029282200       0.000000000 )
          (       0.029282200       0.002598220      -0.000000000 )
          (       0.000000000      -0.000000000      -0.063656862 )

          (       0.000000000       0.000000000       0.055831791 )
          (       0.000000000      -0.000000000      -0.062688526 )
          (       0.055831791      -0.062688526       0.000000000 )

           atom     16
          (      -0.063691424      -0.007992700      -0.000000000 )
          (      -0.007992700      -0.009523159      -0.000000000 )
          (      -0.000000000      -0.000000000       0.031482351 )

          (       0.004422079       0.029282200      -0.000000000 )
          (       0.029282200      -0.002598220      -0.000000000 )
          (      -0.000000000      -0.000000000       0.063656862 )

          (       0.000000000       0.000000000       0.055831791 )
          (       0.000000000      -0.000000000       0.062688526 )
          (       0.055831791       0.062688526      -0.000000000 )

           atom     17
          (       0.063691424      -0.007992700       0.000000000 )
          (      -0.007992700       0.009523159       0.000000000 )
          (      -0.000000000      -0.000000000      -0.031482351 )

          (       0.004422079      -0.029282200      -0.000000000 )
          (      -0.029282200      -0.002598220       0.000000000 )
          (       0.000000000       0.000000000       0.063656862 )

          (      -0.000000000      -0.000000000      -0.055831791 )
          (      -0.000000000       0.000000000       0.062688526 )
          (      -0.055831791       0.062688526       0.000000000 )

           atom     18
          (       0.063691424       0.007992700       0.000000000 )
          (       0.007992700       0.009523159       0.000000000 )
          (       0.000000000       0.000000000      -0.031482351 )

          (      -0.004422079      -0.029282200      -0.000000000 )
          (      -0.029282200       0.002598220       0.000000000 )
          (       0.000000000       0.000000000      -0.063656862 )

          (      -0.000000000       0.000000000      -0.055831791 )
          (       0.000000000       0.000000000      -0.062688526 )
          (      -0.055831791      -0.062688526      -0.000000000 )

           atom     19
          (       0.012914084      -0.008002259      -0.012978077 )
          (      -0.008002259       0.004262724       0.003794582 )
          (      -0.012978077       0.003794582       0.012109196 )

          (      -0.008646542       0.009554220       0.002686627 )
          (       0.009554220      -0.030976228      -0.016814732 )
          (       0.002686627      -0.016814732      -0.017473266 )

          (      -0.020887860       0.009220827       0.016871030 )
          (       0.009220827      -0.023378444      -0.022887431 )
          (       0.016871030      -0.022887431      -0.045751316 )

           atom     20
          (       0.012914084       0.008002259       0.012978077 )
          (       0.008002259       0.004262724       0.003794582 )
          (       0.012978077       0.003794582       0.012109196 )

          (       0.008646542       0.009554220       0.002686627 )
          (       0.009554220       0.030976228       0.016814732 )
          (       0.002686627       0.016814732       0.017473266 )

          (       0.020887860       0.009220827       0.016871030 )
          (       0.009220827       0.023378444       0.022887431 )
          (       0.016871030       0.022887431       0.045751316 )

           atom     21
          (      -0.012914084       0.008002259      -0.012978077 )
          (       0.008002259      -0.004262724       0.003794582 )
          (      -0.012978077       0.003794582      -0.012109196 )

          (       0.008646542      -0.009554220       0.002686627 )
          (      -0.009554220       0.030976228      -0.016814732 )
          (       0.002686627      -0.016814732       0.017473266 )

          (      -0.020887860       0.009220827      -0.016871030 )
          (       0.009220827      -0.023378444       0.022887431 )
          (      -0.016871030       0.022887431      -0.045751316 )

           atom     22
          (      -0.012914084      -0.008002259       0.012978077 )
          (      -0.008002259      -0.004262724       0.003794582 )
          (       0.012978077       0.003794582      -0.012109196 )

          (      -0.008646542      -0.009554220       0.002686627 )
          (      -0.009554220      -0.030976228       0.016814732 )
          (       0.002686627       0.016814732      -0.017473266 )

          (       0.020887860       0.009220827      -0.016871030 )
          (       0.009220827       0.023378444      -0.022887431 )
          (      -0.016871030      -0.022887431       0.045751316 )

           atom     23
          (      -0.012914084       0.008002259       0.012978077 )
          (       0.008002259      -0.004262724      -0.003794582 )
          (       0.012978077      -0.003794582      -0.012109196 )

          (       0.008646542      -0.009554220      -0.002686627 )
          (      -0.009554220       0.030976228       0.016814732 )
          (      -0.002686627       0.016814732       0.017473266 )

          (       0.020887860      -0.009220827      -0.016871030 )
          (      -0.009220827       0.023378444       0.022887431 )
          (      -0.016871030       0.022887431       0.045751316 )

           atom     24
          (      -0.012914084      -0.008002259      -0.012978077 )
          (      -0.008002259      -0.004262724      -0.003794582 )
          (      -0.012978077      -0.003794582      -0.012109196 )

          (      -0.008646542      -0.009554220      -0.002686627 )
          (      -0.009554220      -0.030976228      -0.016814732 )
          (      -0.002686627      -0.016814732      -0.017473266 )

          (      -0.020887860      -0.009220827      -0.016871030 )
          (      -0.009220827      -0.023378444      -0.022887431 )
          (      -0.016871030      -0.022887431      -0.045751316 )

           atom     25
          (       0.012914084      -0.008002259       0.012978077 )
          (      -0.008002259       0.004262724      -0.003794582 )
          (       0.012978077      -0.003794582       0.012109196 )

          (      -0.008646542       0.009554220      -0.002686627 )
          (       0.009554220      -0.030976228       0.016814732 )
          (      -0.002686627       0.016814732      -0.017473266 )

          (       0.020887860      -0.009220827       0.016871030 )
          (      -0.009220827       0.023378444      -0.022887431 )
          (       0.016871030      -0.022887431       0.045751316 )

           atom     26
          (       0.012914084       0.008002259      -0.012978077 )
          (       0.008002259       0.004262724      -0.003794582 )
          (      -0.012978077      -0.003794582       0.012109196 )

          (       0.008646542       0.009554220      -0.002686627 )
          (       0.009554220       0.030976228      -0.016814732 )
          (      -0.002686627      -0.016814732       0.017473266 )

          (      -0.020887860      -0.009220827       0.016871030 )
          (      -0.009220827      -0.023378444       0.022887431 )
          (       0.016871030       0.022887431      -0.045751316 )

           atom     27
          (       0.092329968      -0.004557420       0.000000000 )
          (      -0.004557420       0.045768174       0.000000000 )
          (       0.000000000       0.000000000       0.007446863 )

          (       0.007471032       0.025925121       0.000000000 )
          (       0.025925121      -0.013931430      -0.000000000 )
          (       0.000000000      -0.000000000       0.002143641 )

          (       0.000000000       0.000000000       0.001483834 )
          (       0.000000000      -0.000000000       0.004824914 )
          (       0.001483834       0.004824914      -0.000000000 )

           atom     28
          (       0.092329968       0.004557420      -0.000000000 )
          (       0.004557420       0.045768174      -0.000000000 )
          (       0.000000000      -0.000000000       0.007446863 )

          (      -0.007471032       0.025925121      -0.000000000 )
          (       0.025925121       0.013931430       0.000000000 )
          (      -0.000000000      -0.000000000      -0.002143641 )

          (      -0.000000000      -0.000000000       0.001483834 )
          (       0.000000000      -0.000000000      -0.004824914 )
          (       0.001483834      -0.004824914      -0.000000000 )

           atom     29
          (      -0.092329968       0.004557420       0.000000000 )
          (       0.004557420      -0.045768174       0.000000000 )
          (       0.000000000       0.000000000      -0.007446863 )

          (      -0.007471032      -0.025925121      -0.000000000 )
          (      -0.025925121       0.013931430       0.000000000 )
          (      -0.000000000       0.000000000      -0.002143641 )

          (      -0.000000000      -0.000000000      -0.001483834 )
          (      -0.000000000       0.000000000      -0.004824914 )
          (      -0.001483834      -0.004824914       0.000000000 )

           atom     30
          (      -0.092329968      -0.004557420      -0.000000000 )
          (      -0.004557420      -0.045768174      -0.000000000 )
          (      -0.000000000      -0.000000000      -0.007446863 )

          (       0.007471032      -0.025925121       0.000000000 )
          (      -0.025925121      -0.013931430       0.000000000 )
          (       0.000000000       0.000000000       0.002143641 )

          (      -0.000000000       0.000000000      -0.001483834 )
          (       0.000000000      -0.000000000       0.004824914 )
          (      -0.001483834       0.004824914      -0.000000000 )

           atom     31
          (      -0.004765686      -0.009949524       0.013640409 )
          (      -0.009949524       0.012994886      -0.012703328 )
          (       0.013640409      -0.012703328       0.019987165 )

          (      -0.010728670       0.012947544      -0.017124482 )
          (       0.012947544      -0.022410292       0.020689278 )
          (      -0.017124482       0.020689278      -0.030114075 )

          (       0.021884634      -0.022345760       0.029304221 )
          (      -0.022345760       0.031877782      -0.033644745 )
          (       0.029304221      -0.033644745       0.047570207 )

           atom     32
          (      -0.004765686       0.009949524      -0.013640409 )
          (       0.009949524       0.012994886      -0.012703328 )
          (      -0.013640409      -0.012703328       0.019987165 )

          (       0.010728670       0.012947544      -0.017124482 )
          (       0.012947544       0.022410292      -0.020689278 )
          (      -0.017124482      -0.020689278       0.030114075 )

          (      -0.021884634      -0.022345760       0.029304221 )
          (      -0.022345760      -0.031877782       0.033644745 )
          (       0.029304221       0.033644745      -0.047570207 )

           atom     33
          (       0.004765686       0.009949524       0.013640409 )
          (       0.009949524      -0.012994886      -0.012703328 )
          (       0.013640409      -0.012703328      -0.019987165 )

          (       0.010728670      -0.012947544      -0.017124482 )
          (      -0.012947544       0.022410292       0.020689278 )
          (      -0.017124482       0.020689278       0.030114075 )

          (       0.021884634      -0.022345760      -0.029304221 )
          (      -0.022345760       0.031877782       0.033644745 )
          (      -0.029304221       0.033644745       0.047570207 )

           atom     34
          (       0.004765686      -0.009949524      -0.013640409 )
          (      -0.009949524      -0.012994886      -0.012703328 )
          (      -0.013640409      -0.012703328      -0.019987165 )

          (      -0.010728670      -0.012947544      -0.017124482 )
          (      -0.012947544      -0.022410292      -0.020689278 )
          (      -0.017124482      -0.020689278      -0.030114075 )

          (      -0.021884634      -0.022345760      -0.029304221 )
          (      -0.022345760      -0.031877782      -0.033644745 )
          (      -0.029304221      -0.033644745      -0.047570207 )

           atom     35
          (       0.004765686       0.009949524      -0.013640409 )
          (       0.009949524      -0.012994886       0.012703328 )
          (      -0.013640409       0.012703328      -0.019987165 )

          (       0.010728670      -0.012947544       0.017124482 )
          (      -0.012947544       0.022410292      -0.020689278 )
          (       0.017124482      -0.020689278       0.030114075 )

          (      -0.021884634       0.022345760      -0.029304221 )
          (       0.022345760      -0.031877782       0.033644745 )
          (      -0.029304221       0.033644745      -0.047570207 )

           atom     36
          (       0.004765686      -0.009949524       0.013640409 )
          (      -0.009949524      -0.012994886       0.012703328 )
          (       0.013640409       0.012703328      -0.019987165 )

          (      -0.010728670      -0.012947544       0.017124482 )
          (      -0.012947544      -0.022410292       0.020689278 )
          (       0.017124482       0.020689278      -0.030114075 )

          (       0.021884634       0.022345760      -0.029304221 )
          (       0.022345760       0.031877782      -0.033644745 )
          (      -0.029304221      -0.033644745       0.047570207 )

           atom     37
          (      -0.004765686      -0.009949524      -0.013640409 )
          (      -0.009949524       0.012994886       0.012703328 )
          (      -0.013640409       0.012703328       0.019987165 )

          (      -0.010728670       0.012947544       0.017124482 )
          (       0.012947544      -0.022410292      -0.020689278 )
          (       0.017124482      -0.020689278      -0.030114075 )

          (      -0.021884634       0.022345760       0.029304221 )
          (       0.022345760      -0.031877782      -0.033644745 )
          (       0.029304221      -0.033644745      -0.047570207 )

           atom     38
          (      -0.004765686       0.009949524       0.013640409 )
          (       0.009949524       0.012994886       0.012703328 )
          (       0.013640409       0.012703328       0.019987165 )

          (       0.010728670       0.012947544       0.017124482 )
          (       0.012947544       0.022410292       0.020689278 )
          (       0.017124482       0.020689278       0.030114075 )

          (       0.021884634       0.022345760       0.029304221 )
          (       0.022345760       0.031877782       0.033644745 )
          (       0.029304221       0.033644745       0.047570207 )

           atom     39
          (      -0.016202748       0.004974458       0.002826490 )
          (       0.004974458      -0.004977359       0.006902056 )
          (       0.002826490       0.006902056      -0.018767253 )

          (       0.008705781      -0.008623575       0.007106677 )
          (      -0.008623575       0.008961660      -0.022172468 )
          (       0.007106677      -0.022172468       0.046176412 )

          (      -0.001547073       0.008451904      -0.016480468 )
          (       0.008451904      -0.005642731       0.049770730 )
          (      -0.016480468       0.049770730      -0.092362718 )

           atom     40
          (      -0.016202748      -0.004974458      -0.002826490 )
          (      -0.004974458      -0.004977359       0.006902056 )
          (      -0.002826490       0.006902056      -0.018767253 )

          (      -0.008705781      -0.008623575       0.007106677 )
          (      -0.008623575      -0.008961660       0.022172468 )
          (       0.007106677       0.022172468      -0.046176412 )

          (       0.001547073       0.008451904      -0.016480468 )
          (       0.008451904       0.005642731      -0.049770730 )
          (      -0.016480468      -0.049770730       0.092362718 )

           atom     41
          (       0.016202748      -0.004974458       0.002826490 )
          (      -0.004974458       0.004977359       0.006902056 )
          (       0.002826490       0.006902056       0.018767253 )

          (      -0.008705781       0.008623575       0.007106677 )
          (       0.008623575      -0.008961660      -0.022172468 )
          (       0.007106677      -0.022172468      -0.046176412 )

          (      -0.001547073       0.008451904       0.016480468 )
          (       0.008451904      -0.005642731      -0.049770730 )
          (       0.016480468      -0.049770730      -0.092362718 )

           atom     42
          (       0.016202748       0.004974458      -0.002826490 )
          (       0.004974458       0.004977359       0.006902056 )
          (      -0.002826490       0.006902056       0.018767253 )

          (       0.008705781       0.008623575       0.007106677 )
          (       0.008623575       0.008961660       0.022172468 )
          (       0.007106677       0.022172468       0.046176412 )

          (       0.001547073       0.008451904       0.016480468 )
          (       0.008451904       0.005642731       0.049770730 )
          (       0.016480468       0.049770730       0.092362718 )

           atom     43
          (       0.016202748      -0.004974458      -0.002826490 )
          (      -0.004974458       0.004977359      -0.006902056 )
          (      -0.002826490      -0.006902056       0.018767253 )

          (      -0.008705781       0.008623575      -0.007106677 )
          (       0.008623575      -0.008961660       0.022172468 )
          (      -0.007106677       0.022172468      -0.046176412 )

          (       0.001547073      -0.008451904       0.016480468 )
          (      -0.008451904       0.005642731      -0.049770730 )
          (       0.016480468      -0.049770730       0.092362718 )

           atom     44
          (       0.016202748       0.004974458       0.002826490 )
          (       0.004974458       0.004977359      -0.006902056 )
          (       0.002826490      -0.006902056       0.018767253 )

          (       0.008705781       0.008623575      -0.007106677 )
          (       0.008623575       0.008961660      -0.022172468 )
          (      -0.007106677      -0.022172468       0.046176412 )

          (      -0.001547073      -0.008451904       0.016480468 )
          (      -0.008451904      -0.005642731       0.049770730 )
          (       0.016480468       0.049770730      -0.092362718 )

           atom     45
          (      -0.016202748       0.004974458      -0.002826490 )
          (       0.004974458      -0.004977359      -0.006902056 )
          (      -0.002826490      -0.006902056      -0.018767253 )

          (       0.008705781      -0.008623575      -0.007106677 )
          (      -0.008623575       0.008961660       0.022172468 )
          (      -0.007106677       0.022172468       0.046176412 )

          (       0.001547073      -0.008451904      -0.016480468 )
          (      -0.008451904       0.005642731       0.049770730 )
          (      -0.016480468       0.049770730       0.092362718 )

           atom     46
          (      -0.016202748      -0.004974458       0.002826490 )
          (      -0.004974458      -0.004977359      -0.006902056 )
          (       0.002826490      -0.006902056      -0.018767253 )

          (      -0.008705781      -0.008623575      -0.007106677 )
          (      -0.008623575      -0.008961660      -0.022172468 )
          (      -0.007106677      -0.022172468      -0.046176412 )

          (      -0.001547073      -0.008451904      -0.016480468 )
          (      -0.008451904      -0.005642731      -0.049770730 )
          (      -0.016480468      -0.049770730      -0.092362718 )

           atom     47
          (       0.011276694       0.000101355       0.000000000 )
          (       0.000101355      -0.016262839       0.000000000 )
          (       0.000000000       0.000000000      -0.062529276 )

          (       0.002003466      -0.022639732       0.000000000 )
          (      -0.022639732       0.014165677      -0.000000000 )
          (       0.000000000      -0.000000000       0.113252765 )

          (       0.000000000       0.000000000      -0.026118532 )
          (       0.000000000      -0.000000000       0.091447465 )
          (      -0.026118532       0.091447465       0.000000000 )

           atom     48
          (       0.011276694      -0.000101355      -0.000000000 )
          (      -0.000101355      -0.016262839      -0.000000000 )
          (      -0.000000000      -0.000000000      -0.062529276 )

          (      -0.002003466      -0.022639732      -0.000000000 )
          (      -0.022639732      -0.014165677      -0.000000000 )
          (      -0.000000000      -0.000000000      -0.113252765 )

          (      -0.000000000       0.000000000      -0.026118532 )
          (       0.000000000       0.000000000      -0.091447465 )
          (      -0.026118532      -0.091447465      -0.000000000 )

           atom     49
          (      -0.011276694      -0.000101355      -0.000000000 )
          (      -0.000101355       0.016262839       0.000000000 )
          (      -0.000000000       0.000000000       0.062529276 )

          (      -0.002003466       0.022639732       0.000000000 )
          (       0.022639732      -0.014165677       0.000000000 )
          (      -0.000000000       0.000000000      -0.113252765 )

          (      -0.000000000       0.000000000       0.026118532 )
          (       0.000000000       0.000000000      -0.091447465 )
          (       0.026118532      -0.091447465       0.000000000 )

           atom     50
          (      -0.011276694       0.000101355       0.000000000 )
          (       0.000101355       0.016262839      -0.000000000 )
          (      -0.000000000      -0.000000000       0.062529276 )

          (       0.002003466       0.022639732      -0.000000000 )
          (       0.022639732       0.014165677      -0.000000000 )
          (      -0.000000000      -0.000000000       0.113252765 )

          (      -0.000000000      -0.000000000       0.026118532 )
          (      -0.000000000      -0.000000000       0.091447465 )
          (       0.026118532       0.091447465      -0.000000000 )


     Raman tensor (A^2)

     atom #    1    pol.  1
     -0.996791929710E+01      0.466273985803E-15     -0.288278387879E-14
      0.621701424855E-15     -0.475465048309E+01     -0.408797341819E-14
     -0.342493226350E-14     -0.466355430431E-14      0.684608672936E+01
     atom #    1    pol.  2
      0.866189142092E-15     -0.244994840866E+00     -0.191576457984E-14
     -0.244994840866E+00     -0.117566812938E-15     -0.221609275304E-14
     -0.207471906821E-14     -0.229760609605E-14      0.741621778070E-14
     atom #    1    pol.  3
      0.114756428780E-15     -0.190939953380E-14     -0.591803108919E+01
     -0.350482482534E-14     -0.950002428882E-15      0.738747038510E-14
     -0.591803108919E+01      0.938497717163E-14     -0.234514978109E-13
     atom #    2    pol.  1
      0.996791929710E+01      0.532570042792E-15     -0.216287521421E-14
      0.299729806000E-15      0.475465048309E+01     -0.136884292571E-14
     -0.211493863466E-14     -0.148809663375E-14     -0.684608672936E+01
     atom #    2    pol.  2
      0.812620851219E-15      0.244994840866E+00     -0.398826386972E-14
      0.244994840866E+00      0.593151057800E-15     -0.172218445286E-14
     -0.374506576204E-14     -0.223538296566E-14      0.106036381734E-13
     atom #    2    pol.  3
     -0.388355515017E-14     -0.525044062923E-14      0.591803108919E+01
[...]
     freq (   72) =      30.389116 [THz] =    1013.671810 [cm-1]
     freq (   73) =      31.372639 [THz] =    1046.478586 [cm-1]
     freq (   74) =      31.452193 [THz] =    1049.132238 [cm-1]
     freq (   75) =      32.010641 [THz] =    1067.760038 [cm-1]
     freq (   76) =      32.167479 [THz] =    1072.991592 [cm-1]
     freq (   77) =      32.564395 [THz] =    1086.231299 [cm-1]
     freq (   78) =      32.685796 [THz] =    1090.280789 [cm-1]
     freq (   79) =      32.742068 [THz] =    1092.157837 [cm-1]
     freq (   80) =      32.828799 [THz] =    1095.050856 [cm-1]
     freq (   81) =      33.586143 [THz] =    1120.313139 [cm-1]
     freq (   82) =      33.729879 [THz] =    1125.107664 [cm-1]
     freq (   83) =      35.558424 [THz] =    1186.101354 [cm-1]
     freq (   84) =      35.630194 [THz] =    1188.495335 [cm-1]
     freq (   85) =      36.091323 [THz] =    1203.876962 [cm-1]
     freq (   86) =      36.361582 [THz] =    1212.891808 [cm-1]
     freq (   87) =      38.022419 [THz] =    1268.291369 [cm-1]
     freq (   88) =      38.154125 [THz] =    1272.684614 [cm-1]
     freq (   89) =      38.397382 [THz] =    1280.798787 [cm-1]
     freq (   90) =      38.458032 [THz] =    1282.821874 [cm-1]
     freq (   91) =      38.556643 [THz] =    1286.111162 [cm-1]
     freq (   92) =      38.641703 [THz] =    1288.948463 [cm-1]
     freq (   93) =      40.677606 [THz] =    1356.858886 [cm-1]
     freq (   94) =      40.735340 [THz] =    1358.784669 [cm-1]
     freq (   95) =      40.830425 [THz] =    1361.956365 [cm-1]
     freq (   96) =      40.894032 [THz] =    1364.078086 [cm-1]
     freq (   97) =      40.941370 [THz] =    1365.657089 [cm-1]
     freq (   98) =      41.159859 [THz] =    1372.945100 [cm-1]
     freq (   99) =      41.201802 [THz] =    1374.344178 [cm-1]
     freq (  100) =      41.263008 [THz] =    1376.385808 [cm-1]
     freq (  101) =      41.360364 [THz] =    1379.633241 [cm-1]
     freq (  102) =      41.403262 [THz] =    1381.064160 [cm-1]
     freq (  103) =      41.516091 [THz] =    1384.827722 [cm-1]
     freq (  104) =      41.562535 [THz] =    1386.376929 [cm-1]
     freq (  105) =      41.803226 [THz] =    1394.405541 [cm-1]
     freq (  106) =      41.898240 [THz] =    1397.574859 [cm-1]
     freq (  107) =      41.963685 [THz] =    1399.757863 [cm-1]
     freq (  108) =      42.100368 [THz] =    1404.317099 [cm-1]
     freq (  109) =      42.206391 [THz] =    1407.853650 [cm-1]
     freq (  110) =      42.214112 [THz] =    1408.111209 [cm-1]
     freq (  111) =      42.229955 [THz] =    1408.639682 [cm-1]
     freq (  112) =      42.248061 [THz] =    1409.243621 [cm-1]
     freq (  113) =      42.363009 [THz] =    1413.077883 [cm-1]
     freq (  114) =      42.548330 [THz] =    1419.259526 [cm-1]
     freq (  115) =      42.946340 [THz] =    1432.535692 [cm-1]
     freq (  116) =      43.049410 [THz] =    1435.973744 [cm-1]
     freq (  117) =      43.085233 [THz] =    1437.168665 [cm-1]
     freq (  118) =      43.320692 [THz] =    1445.022750 [cm-1]
     freq (  119) =      44.641005 [THz] =    1489.063649 [cm-1]
     freq (  120) =      44.757327 [THz] =    1492.943718 [cm-1]
     freq (  121) =      44.965953 [THz] =    1499.902756 [cm-1]
     freq (  122) =      45.000382 [THz] =    1501.051156 [cm-1]
     freq (  123) =      87.002199 [THz] =    2902.080964 [cm-1]
     freq (  124) =      87.113935 [THz] =    2905.808104 [cm-1]
     freq (  125) =      87.123155 [THz] =    2906.115634 [cm-1]
     freq (  126) =      87.136879 [THz] =    2906.573420 [cm-1]
     freq (  127) =      87.142773 [THz] =    2906.770037 [cm-1]
     freq (  128) =      87.161191 [THz] =    2907.384379 [cm-1]
     freq (  129) =      87.250218 [THz] =    2910.354004 [cm-1]
     freq (  130) =      87.403863 [THz] =    2915.479036 [cm-1]
     freq (  131) =      87.514269 [THz] =    2919.161811 [cm-1]
     freq (  132) =      87.528055 [THz] =    2919.621657 [cm-1]
     freq (  133) =      87.794767 [THz] =    2928.518211 [cm-1]
     freq (  134) =      87.830854 [THz] =    2929.721934 [cm-1]
     freq (  135) =      88.811472 [THz] =    2962.431827 [cm-1]
     freq (  136) =      88.821202 [THz] =    2962.756381 [cm-1]
     freq (  137) =      88.881492 [THz] =    2964.767434 [cm-1]
     freq (  138) =      88.998650 [THz] =    2968.675430 [cm-1]
     freq (  139) =      89.239746 [THz] =    2976.717505 [cm-1]
     freq (  140) =      89.242544 [THz] =    2976.810857 [cm-1]
     freq (  141) =      89.741530 [THz] =    2993.455212 [cm-1]
     freq (  142) =      89.759309 [THz] =    2994.048283 [cm-1]
     freq (  143) =      89.781447 [THz] =    2994.786715 [cm-1]
     freq (  144) =      89.832453 [THz] =    2996.488075 [cm-1]
     freq (  145) =      89.898446 [THz] =    2998.689383 [cm-1]
     freq (  146) =      89.898660 [THz] =    2998.696512 [cm-1]
     freq (  147) =      90.739692 [THz] =    3026.750321 [cm-1]
     freq (  148) =      90.761740 [THz] =    3027.485779 [cm-1]
     freq (  149) =      90.823959 [THz] =    3029.561173 [cm-1]
     freq (  150) =      90.833231 [THz] =    3029.870461 [cm-1]
 **************************************************************************

     Mode symmetry, D_2h (mmm)  point group:

     freq (   1-   1) =         -2.5  [cm-1]   --> B_1u            I  
     freq (   2-   2) =          3.2  [cm-1]   --> B_3u            I  
     freq (   3-   3) =          3.7  [cm-1]   --> B_2u            I  
     freq (   4-   4) =         30.0  [cm-1]   --> B_1g            R  
     freq (   5-   5) =         31.8  [cm-1]   --> B_1u            I  
     freq (   6-   6) =         32.6  [cm-1]   --> B_3g            R  
     freq (   7-   7) =         36.1  [cm-1]   --> B_2g            R  
     freq (   8-   8) =         39.1  [cm-1]   --> B_1g            R  
     freq (   9-   9) =         40.1  [cm-1]   --> B_3u            I  
     freq (  10-  10) =         40.3  [cm-1]   --> B_2u            I  
     freq (  11-  11) =         42.2  [cm-1]   --> B_3g            R  
     freq (  12-  12) =         43.7  [cm-1]   --> A_g             R  
     freq (  13-  13) =         46.8  [cm-1]   --> A_u                
     freq (  14-  14) =         48.0  [cm-1]   --> B_3u            I  
     freq (  15-  15) =         48.2  [cm-1]   --> B_1g            R  
     freq (  16-  16) =         50.9  [cm-1]   --> B_1u            I  
     freq (  17-  17) =         55.3  [cm-1]   --> B_3g            R  
     freq (  18-  18) =         59.7  [cm-1]   --> A_g             R  
     freq (  19-  19) =         59.8  [cm-1]   --> B_3u            I  
     freq (  20-  20) =         61.3  [cm-1]   --> B_2u            I  
     freq (  21-  21) =         64.6  [cm-1]   --> B_3u            I  
     freq (  22-  22) =         64.8  [cm-1]   --> B_1g            R  
     freq (  23-  23) =         85.2  [cm-1]   --> A_g             R  
     freq (  24-  24) =         92.6  [cm-1]   --> B_2u            I  
     freq (  25-  25) =         97.9  [cm-1]   --> B_3g            R  
     freq (  26-  26) =        100.0  [cm-1]   --> B_1u            I  
     freq (  27-  27) =        104.0  [cm-1]   --> A_u                
     freq (  28-  28) =        107.5  [cm-1]   --> B_2g            R  
     freq (  29-  29) =        107.8  [cm-1]   --> B_1u            I  
     freq (  30-  30) =        108.5  [cm-1]   --> A_g             R  
     freq (  31-  31) =        109.2  [cm-1]   --> B_1g            R  
     freq (  32-  32) =        115.2  [cm-1]   --> B_3u            I  
     freq (  33-  33) =        115.7  [cm-1]   --> B_2u            I  
     freq (  34-  34) =        118.2  [cm-1]   --> B_3u            I  
     freq (  35-  35) =        122.2  [cm-1]   --> B_3g            R  
     freq (  36-  36) =        123.9  [cm-1]   --> B_2u            I  
     freq (  37-  37) =        129.3  [cm-1]   --> B_2u            I  
     freq (  38-  38) =        133.0  [cm-1]   --> B_1g            R  
     freq (  39-  39) =        139.3  [cm-1]   --> A_g             R  
     freq (  40-  40) =        146.8  [cm-1]   --> B_2g            R  
     freq (  41-  41) =        153.7  [cm-1]   --> B_1u            I  
     freq (  42-  42) =        161.3  [cm-1]   --> A_g             R  
     freq (  43-  43) =        170.2  [cm-1]   --> A_u                
     freq (  44-  44) =        183.1  [cm-1]   --> B_3g            R  
     freq (  45-  45) =        189.9  [cm-1]   --> B_3u            I  
     freq (  46-  46) =        194.7  [cm-1]   --> B_2u            I  
     freq (  47-  47) =        233.0  [cm-1]   --> A_u                
     freq (  48-  48) =        238.1  [cm-1]   --> B_2g            R  
     freq (  49-  49) =        247.8  [cm-1]   --> B_3g            R  
     freq (  50-  50) =        247.9  [cm-1]   --> B_1u            I  
     freq (  51-  51) =        289.5  [cm-1]   --> A_u                
     freq (  52-  52) =        293.7  [cm-1]   --> B_3g            R  
     freq (  53-  53) =        316.8  [cm-1]   --> B_2g            R  
     freq (  54-  54) =        322.5  [cm-1]   --> B_1g            R  
     freq (  55-  55) =        328.2  [cm-1]   --> B_1u            I  
     freq (  56-  56) =        332.8  [cm-1]   --> A_g             R  
     freq (  57-  57) =        383.0  [cm-1]   --> B_1g            R  
     freq (  58-  58) =        386.4  [cm-1]   --> A_g             R  
     freq (  59-  59) =        475.4  [cm-1]   --> B_3u            I  
     freq (  60-  60) =        479.8  [cm-1]   --> B_2u            I  
     freq (  61-  61) =        739.4  [cm-1]   --> B_1u            I  
     freq (  62-  62) =        740.4  [cm-1]   --> A_u                
     freq (  63-  63) =        804.2  [cm-1]   --> B_2g            R  
     freq (  64-  64) =        810.9  [cm-1]   --> B_3g            R  
     freq (  65-  65) =        864.2  [cm-1]   --> A_u                
     freq (  66-  66) =        865.6  [cm-1]   --> B_1u            I  
     freq (  67-  67) =        937.9  [cm-1]   --> B_3u            I  
     freq (  68-  68) =        938.4  [cm-1]   --> B_2u            I  
     freq (  69-  69) =        968.2  [cm-1]   --> A_g             R  
     freq (  70-  70) =        969.2  [cm-1]   --> B_1g            R  
     freq (  71-  71) =        996.7  [cm-1]   --> B_2g            R  
     freq (  72-  72) =       1013.7  [cm-1]   --> B_3g            R  
     freq (  73-  73) =       1046.5  [cm-1]   --> B_1g            R  
     freq (  74-  74) =       1049.1  [cm-1]   --> A_g             R  
     freq (  75-  75) =       1067.8  [cm-1]   --> A_u                
     freq (  76-  76) =       1073.0  [cm-1]   --> B_1u            I  
     freq (  77-  77) =       1086.2  [cm-1]   --> B_3u            I  
     freq (  78-  78) =       1090.3  [cm-1]   --> B_1g            R  
     freq (  79-  79) =       1092.2  [cm-1]   --> B_2u            I  
     freq (  80-  80) =       1095.1  [cm-1]   --> A_g             R  
     freq (  81-  81) =       1120.3  [cm-1]   --> B_3u            I  
     freq (  82-  82) =       1125.1  [cm-1]   --> B_2u            I  
     freq (  83-  83) =       1186.1  [cm-1]   --> A_g             R  
     freq (  84-  84) =       1188.5  [cm-1]   --> B_1g            R  
     freq (  85-  85) =       1203.9  [cm-1]   --> B_2g            R  
     freq (  86-  86) =       1212.9  [cm-1]   --> B_3g            R  
     freq (  87-  87) =       1268.3  [cm-1]   --> A_u                
     freq (  88-  88) =       1272.7  [cm-1]   --> B_1u            I  
     freq (  89-  89) =       1280.8  [cm-1]   --> B_3u            I  
     freq (  90-  90) =       1282.8  [cm-1]   --> B_2u            I  
     freq (  91-  91) =       1286.1  [cm-1]   --> B_2g            R  
     freq (  92-  92) =       1288.9  [cm-1]   --> B_3g            R  
     freq (  93-  93) =       1356.9  [cm-1]   --> B_1g            R  
     freq (  94-  94) =       1358.8  [cm-1]   --> B_2g            R  
     freq (  95-  95) =       1362.0  [cm-1]   --> A_g             R  
     freq (  96-  96) =       1364.1  [cm-1]   --> B_3u            I  
     freq (  97-  97) =       1365.7  [cm-1]   --> B_3g            R  
     freq (  98-  98) =       1372.9  [cm-1]   --> B_2u            I  
     freq (  99-  99) =       1374.3  [cm-1]   --> B_1g            R  
     freq ( 100- 100) =       1376.4  [cm-1]   --> A_g             R  
     freq ( 101- 101) =       1379.6  [cm-1]   --> B_1u            I  
     freq ( 102- 102) =       1381.1  [cm-1]   --> B_1g            R  
     freq ( 103- 103) =       1384.8  [cm-1]   --> A_u                
     freq ( 104- 104) =       1386.4  [cm-1]   --> A_g             R  
     freq ( 105- 105) =       1394.4  [cm-1]   --> B_3u            I  
     freq ( 106- 106) =       1397.6  [cm-1]   --> B_2u            I  
     freq ( 107- 107) =       1399.8  [cm-1]   --> B_3u            I  
     freq ( 108- 108) =       1404.3  [cm-1]   --> B_1g            R  
     freq ( 109- 109) =       1407.9  [cm-1]   --> B_2u            I  
     freq ( 110- 110) =       1408.1  [cm-1]   --> B_1g            R  
     freq ( 111- 111) =       1408.6  [cm-1]   --> A_g             R  
     freq ( 112- 112) =       1409.2  [cm-1]   --> B_2g            R  
     freq ( 113- 113) =       1413.1  [cm-1]   --> B_1u            I  
     freq ( 114- 114) =       1419.3  [cm-1]   --> B_3u            I  
     freq ( 115- 115) =       1432.5  [cm-1]   --> B_2u            I  
     freq ( 116- 116) =       1436.0  [cm-1]   --> A_u                
     freq ( 117- 117) =       1437.2  [cm-1]   --> A_g             R  
     freq ( 118- 118) =       1445.0  [cm-1]   --> B_3g            R  
     freq ( 119- 119) =       1489.1  [cm-1]   --> B_3u            I  
     freq ( 120- 120) =       1492.9  [cm-1]   --> A_g             R  
     freq ( 121- 121) =       1499.9  [cm-1]   --> B_1g            R  
     freq ( 122- 122) =       1501.1  [cm-1]   --> B_2u            I  
     freq ( 123- 123) =       2902.1  [cm-1]   --> B_1g            R  
     freq ( 124- 124) =       2905.8  [cm-1]   --> B_3u            I  
     freq ( 125- 125) =       2906.1  [cm-1]   --> B_1u            I  
     freq ( 126- 126) =       2906.6  [cm-1]   --> A_u                
     freq ( 127- 127) =       2906.8  [cm-1]   --> B_2g            R  
     freq ( 128- 128) =       2907.4  [cm-1]   --> B_3g            R  
     freq ( 129- 129) =       2910.4  [cm-1]   --> B_2u            I  
     freq ( 130- 130) =       2915.5  [cm-1]   --> A_g             R  
     freq ( 131- 131) =       2919.2  [cm-1]   --> B_1g            R  
     freq ( 132- 132) =       2919.6  [cm-1]   --> A_g             R  
     freq ( 133- 133) =       2928.5  [cm-1]   --> B_3u            I  
     freq ( 134- 134) =       2929.7  [cm-1]   --> B_2u            I  
     freq ( 135- 135) =       2962.4  [cm-1]   --> B_1g            R  
     freq ( 136- 136) =       2962.8  [cm-1]   --> B_3u            I  
     freq ( 137- 137) =       2964.8  [cm-1]   --> A_g             R  
     freq ( 138- 138) =       2968.7  [cm-1]   --> B_2u            I  
     freq ( 139- 139) =       2976.7  [cm-1]   --> B_2g            R  
     freq ( 140- 140) =       2976.8  [cm-1]   --> B_3g            R  
     freq ( 141- 141) =       2993.5  [cm-1]   --> A_u                
     freq ( 142- 142) =       2994.0  [cm-1]   --> B_2g            R  
     freq ( 143- 143) =       2994.8  [cm-1]   --> B_1u            I  
     freq ( 144- 144) =       2996.5  [cm-1]   --> A_u                
     freq ( 145- 145) =       2998.7  [cm-1]   --> B_3g            R  
     freq ( 146- 146) =       2998.7  [cm-1]   --> B_1u            I  
     freq ( 147- 147) =       3026.8  [cm-1]   --> B_1g            R  
     freq ( 148- 148) =       3027.5  [cm-1]   --> B_3u            I  
     freq ( 149- 149) =       3029.6  [cm-1]   --> A_g             R  
     freq ( 150- 150) =       3029.9  [cm-1]   --> B_2u            I  
 
     PHONON       :      8h27m CPU      8h37m WALL

     INITIALIZATION: 
     phq_setup    :      0.03s CPU      0.15s WALL (       1 calls)
     phq_init     :      2.49s CPU      2.59s WALL (       1 calls)
 
     phq_init     :      2.49s CPU      2.59s WALL (       1 calls)
     set_drhoc    :      0.10s CPU      0.11s WALL (       3 calls)
     init_vloc    :      0.04s CPU      0.04s WALL (       1 calls)
     init_us_1    :      0.01s CPU      0.01s WALL (       1 calls)
     init_us_2    :     15.57s CPU     18.35s WALL (   14992 calls)
 
     DIELECTRIC CONSTANT AND EFFECTIVE CHARGES:
     solve_e      :    755.96s CPU    767.21s WALL (       1 calls)
     dielec       :      0.01s CPU      0.06s WALL (       1 calls)
     zstar_eu     :    142.71s CPU    144.71s WALL (       1 calls)
 
     RAMAN COEFFICIENTS, THIRD-ORDER CHI:
     dhdrhopsi    :   1671.70s CPU   1689.06s WALL (       1 calls)
     dvpsi_e2     :     81.06s CPU     82.08s WALL (       1 calls)
     solve_e2     :   1504.78s CPU   1525.39s WALL (       1 calls)
 
     DYNAMICAL MATRIX:
     dynmat0      :      2.25s CPU      2.35s WALL (       1 calls)
     phqscf       :  25696.36s CPU  26223.36s WALL (       1 calls)
     dynmatrix    :      0.61s CPU      0.67s WALL (       1 calls)
 
     phqscf       :  25696.36s CPU  26223.36s WALL (       1 calls)
     solve_linter :  25639.06s CPU  26150.66s WALL (     150 calls)
     drhodv       :     55.72s CPU     56.81s WALL (     150 calls)
 
     dynmat0      :      2.25s CPU      2.35s WALL (       1 calls)
     dynmat_us    :      0.94s CPU      0.96s WALL (       1 calls)
     d2ionq       :      0.78s CPU      0.78s WALL (       1 calls)
     dynmatcc     :      0.51s CPU      0.51s WALL (       1 calls)
 
     dynmat_us    :      0.94s CPU      0.96s WALL (       1 calls)
 
     phqscf       :  25696.36s CPU  26223.36s WALL (       1 calls)
     solve_linter :  25639.06s CPU  26150.66s WALL (     150 calls)
 
     solve_linter :  25639.06s CPU  26150.66s WALL (     150 calls)
     dvqpsi_us    :    825.36s CPU    834.15s WALL (    7200 calls)
     sth_kernel   :  24706.79s CPU  24995.39s WALL (    1548 calls)
     apply_dpot_b :   1211.82s CPU   1229.17s WALL (   11352 calls)
     ortho        :     20.58s CPU     21.37s WALL (   12744 calls)
     cgsolve      :  24646.57s CPU  24917.13s WALL (   13512 calls)
     incdrhoscf   :   1603.66s CPU   1624.05s WALL (   13200 calls)
     dv_of_drho   :      7.46s CPU      7.70s WALL (    1659 calls)
     mix_pot      :     70.30s CPU    158.83s WALL (    1561 calls)
     psymdvscf    :   1227.71s CPU   1232.94s WALL (    1536 calls)
 
     dvqpsi_us    :    825.36s CPU    834.15s WALL (    7200 calls)
     dvqpsi_us_on :     61.17s CPU     61.51s WALL (    7200 calls)
 
     cgsolve      :  24646.57s CPU  24917.13s WALL (   13512 calls)
     ch_psi       :  24338.13s CPU  24601.64s WALL (  261030 calls)
 
     ch_psi       :  24338.13s CPU  24601.64s WALL (  261030 calls)
     h_psi        :  23119.08s CPU  23364.95s WALL (  357570 calls)
     last         :   1372.14s CPU   1391.71s WALL (  261030 calls)
 
     h_psi        :  23119.08s CPU  23364.95s WALL (  357570 calls)
     add_vuspsi   :    597.38s CPU    603.01s WALL (  357570 calls)
 
     incdrhoscf   :   1603.66s CPU   1624.05s WALL (   13200 calls)
 
 
      General routines
     calbec       :   1684.29s CPU   1703.57s WALL (  734588 calls)
     fft          :     47.46s CPU     48.30s WALL (   31569 calls)
     ffts         :     41.35s CPU     41.83s WALL (   29700 calls)
     fftw         :  24084.93s CPU  24348.75s WALL (39226454 calls)
     davcio       :     12.25s CPU     36.86s WALL (   74049 calls)
     write_rec    :      4.30s CPU    130.65s WALL (    1711 calls)
 
 
     PHONON       :      8h27m CPU      8h37m WALL

 
   This run was terminated on:  19: 5:22  23Jun2023            

=------------------------------------------------------------------------------=
   JOB DONE.
=------------------------------------------------------------------------------=
