
     Program PWSCF v.7.1 starts on 16Apr2023 at 22: 4:47 

     This program is part of the open-source Quantum ESPRESSO suite
     for quantum simulation of materials; please cite
         "P. Giannozzi et al., J. Phys.:Condens. Matter 21 395502 (2009);
         "P. Giannozzi et al., J. Phys.:Condens. Matter 29 465901 (2017);
         "P. Giannozzi et al., J. Chem. Phys. 152 154105 (2020);
          URL http://www.quantum-espresso.org", 
     in publications or presentations arising from this work. More details at
     http://www.quantum-espresso.org/quote

     Parallel version (MPI), running on    56 processors

     MPI processes distributed on     1 nodes
     51410 MiB available memory on the printing compute node when the environment starts
 
     Waiting for input...
     Reading input from standard input
     Message from routine wypos:
     wyckoff position not found, assuming x y z
     Message from routine wypos:
     wyckoff position not found, assuming x y z
     Message from routine wypos:
     wyckoff position not found, assuming x y z

     Current dimensions of program PWSCF are:
     Max number of different atomic species (ntypx) = 10
     Max number of k-points (npk) =  40000
     Max angular momentum in pseudopotentials (lmaxx) =  4
     Message from routine iosys:
     calculation=vc-relax: ion dynamics fire ignored, 'bfgs' assumed
 
     K-points division:     npool     =       2
     R & G space division:  proc/nbgrp/npool/nimage =      28
     Subspace diagonalization in iterative solution of the eigenvalue problem:
     a serial algorithm will be used

 
     Parallelization info
     --------------------
     sticks:   dense  smooth     PW     G-vecs:    dense   smooth      PW
     Min         278     278     77                 9729     9729    1414
     Max         279     279     78                 9730     9730    1415
     Sum        7797    7797   2165               272423   272423   39595
 
     Using Slab Decomposition
 


     bravais-lattice index     =           11
     lattice parameter (alat)  =      27.6335  a.u.
     unit-cell volume          =    4339.0863 (a.u.)^3
     number of atoms/cell      =           50
     number of atomic types    =            5
     number of electrons       =       164.00
     number of Kohn-Sham states=           82
     kinetic-energy cutoff     =      60.0000  Ry
     charge density cutoff     =     240.0000  Ry
     scf convergence threshold =      1.0E-12
     mixing beta               =       0.5000
     number of iterations used =            8  plain     mixing
     energy convergence thresh.=      1.0E-04
     force convergence thresh. =      1.0E-03
     press convergence thresh. =      1.0E-02
     Exchange-correlation= PBE
                           (   1   4   3   4   0   0   0)
     nstep                     =           50


     celldm(1)=  27.633465  celldm(2)=   0.417431  celldm(3)=   0.985229
     celldm(4)=   0.000000  celldm(5)=   0.000000  celldm(6)=   0.000000

     crystal axes: (cart. coord. in units of alat)
               a(1) = (   0.500000   0.208716   0.492614 )  
               a(2) = (  -0.500000   0.208716   0.492614 )  
               a(3) = (  -0.500000  -0.208716   0.492614 )  

     reciprocal axes: (cart. coord. in units 2 pi/alat)
               b(1) = (  1.000000  0.000000  1.014993 )  
               b(2) = ( -1.000000  2.395603  0.000000 )  
               b(3) = (  0.000000 -2.395603  1.014993 )  


     PseudoPot. # 1 for Pb read from file:
     /home/rkarkee/merced_home_backup/rkarkee/pseudo/Pb.upf
     MD5 check sum: 465799cf2c9ea2062203eb79f5a7a375
     Pseudo is Norm-conserving + core correction, Zval = 14.0
     Generated using ONCVPSP code by D. R. Hamann
     Using radial grid of 1678 points,  6 beta functions with: 
                l(1) =   0
                l(2) =   0
                l(3) =   1
                l(4) =   1
                l(5) =   2
                l(6) =   2

     PseudoPot. # 2 for Br read from file:
     /home/rkarkee/merced_home_backup/rkarkee/pseudo/Br.upf
     MD5 check sum: 68275ccec8d7d9019ef58dac33cdd12b
     Pseudo is Norm-conserving + core correction, Zval =  7.0
     Generated using ONCVPSP code by D. R. Hamann
     Using radial grid of 1098 points,  6 beta functions with: 
                l(1) =   0
                l(2) =   0
                l(3) =   1
                l(4) =   1
                l(5) =   2
                l(6) =   2

     PseudoPot. # 3 for C  read from file:
     /home/rkarkee/merced_home_backup/rkarkee/pseudo/C.upf
     MD5 check sum: 34a24e64c0a39f27c6c36b90a16ac686
     Pseudo is Norm-conserving + core correction, Zval =  4.0
     Generated using ONCVPSP code by D. R. Hamann
     Using radial grid of 1248 points,  4 beta functions with: 
                l(1) =   0
                l(2) =   0
                l(3) =   1
                l(4) =   1

     PseudoPot. # 4 for H  read from file:
     /home/rkarkee/merced_home_backup/rkarkee/pseudo/H.upf
     MD5 check sum: e96aa7e3e4a958db16958554ea960e2a
     Pseudo is Norm-conserving, Zval =  1.0
     Generated using ONCVPSP code by D. R. Hamann
     Using radial grid of 1166 points,  3 beta functions with: 
                l(1) =   0
                l(2) =   0
                l(3) =   1

     PseudoPot. # 5 for N  read from file:
     /home/rkarkee/merced_home_backup/rkarkee/pseudo/N.upf
     MD5 check sum: d34365f73bb0e2ee98afc20ec3e87676
     Pseudo is Norm-conserving + core correction, Zval =  5.0
     Generated using ONCVPSP code by D. R. Hamann
     Using radial grid of 1058 points,  4 beta functions with: 
                l(1) =   0
                l(2) =   0
                l(3) =   1
                l(4) =   1

     atomic species   valence    mass     pseudopotential
        Pb            14.00   207.20000     Pb( 1.00)
        Br             7.00    79.90000     Br( 1.00)
        C              4.00    12.01000     C ( 1.00)
        H              1.00     1.00800     H ( 1.00)
        N              5.00    14.01000     N ( 1.00)

      8 Sym. Ops., with inversion, found ( 4 have fractional translation)


                                    s                        frac. trans.

      isym =  1     identity                                     

 cryst.   s( 1) = (     1          0          0      )
                  (     0          1          0      )
                  (     0          0          1      )

 cart.    s( 1) = (  1.0000000  0.0000000  0.0000000 )
                  ( -0.0000000  1.0000000 -0.0000000 )
                  (  0.0000000  0.0000000  1.0000000 )


      isym =  2     180 deg rotation - cart. axis [0,0,1]        

 cryst.   s( 2) = (     0          0          1      )    f =(  0.0000000 )
                  (     1         -1          1      )       ( -0.5000000 )
                  (     1          0          0      )       (  0.5000000 )

 cart.    s( 2) = ( -1.0000000  0.0000000  0.0000000 )    f =(  0.0000000 )
                  (  0.0000000 -1.0000000 -0.0000000 )       ( -0.2087157 )
                  (  0.0000000 -0.0000000  1.0000000 )       (  0.0000000 )


      isym =  3     180 deg rotation - cart. axis [0,1,0]        

 cryst.   s( 3) = (    -1          1         -1      )    f =(  0.0000000 )
                  (     0          0         -1      )       ( -0.5000000 )
                  (     0         -1          0      )       (  0.5000000 )

 cart.    s( 3) = ( -1.0000000  0.0000000  0.0000000 )    f =(  0.0000000 )
                  (  0.0000000  1.0000000  0.0000000 )       ( -0.2087157 )
                  (  0.0000000  0.0000000 -1.0000000 )       ( -0.0000000 )


      isym =  4     180 deg rotation - cart. axis [1,0,0]        

 cryst.   s( 4) = (     0         -1          0      )
                  (    -1          0          0      )
                  (    -1          1         -1      )

 cart.    s( 4) = (  1.0000000  0.0000000  0.0000000 )
                  (  0.0000000 -1.0000000  0.0000000 )
                  ( -0.0000000 -0.0000000 -1.0000000 )


      isym =  5     inversion                                    

 cryst.   s( 5) = (    -1          0          0      )
                  (     0         -1          0      )
                  (     0          0         -1      )

 cart.    s( 5) = ( -1.0000000  0.0000000  0.0000000 )
                  (  0.0000000 -1.0000000  0.0000000 )
                  ( -0.0000000 -0.0000000 -1.0000000 )


      isym =  6     inv. 180 deg rotation - cart. axis [0,0,1]   

 cryst.   s( 6) = (     0          0         -1      )    f =(  0.0000000 )
                  (    -1          1         -1      )       ( -0.5000000 )
                  (    -1          0          0      )       (  0.5000000 )

 cart.    s( 6) = (  1.0000000  0.0000000  0.0000000 )    f =(  0.0000000 )
                  (  0.0000000  1.0000000  0.0000000 )       ( -0.2087157 )
                  (  0.0000000  0.0000000 -1.0000000 )       ( -0.0000000 )


      isym =  7     inv. 180 deg rotation - cart. axis [0,1,0]   

 cryst.   s( 7) = (     1         -1          1      )    f =(  0.0000000 )
                  (     0          0          1      )       ( -0.5000000 )
                  (     0          1          0      )       (  0.5000000 )

 cart.    s( 7) = (  1.0000000  0.0000000  0.0000000 )    f =(  0.0000000 )
                  (  0.0000000 -1.0000000 -0.0000000 )       ( -0.2087157 )
                  (  0.0000000 -0.0000000  1.0000000 )       (  0.0000000 )


      isym =  8     inv. 180 deg rotation - cart. axis [1,0,0]   

 cryst.   s( 8) = (     0          1          0      )
                  (     1          0          0      )
                  (     1         -1          1      )

 cart.    s( 8) = ( -1.0000000  0.0000000  0.0000000 )
                  ( -0.0000000  1.0000000 -0.0000000 )
                  (  0.0000000  0.0000000  1.0000000 )


     point group D_2h (mmm) 
     there are  8 classes
     the character table:

       E     C2    C2'   C2''  i     s_v   s_v'  s_v''
A_g    1.00  1.00  1.00  1.00  1.00  1.00  1.00  1.00
B_1g   1.00  1.00 -1.00 -1.00  1.00  1.00 -1.00 -1.00
B_2g   1.00 -1.00  1.00 -1.00  1.00 -1.00  1.00 -1.00
B_3g   1.00 -1.00 -1.00  1.00  1.00 -1.00 -1.00  1.00
A_u    1.00  1.00  1.00  1.00 -1.00 -1.00 -1.00 -1.00
B_1u   1.00  1.00 -1.00 -1.00 -1.00 -1.00  1.00  1.00
B_2u   1.00 -1.00  1.00 -1.00 -1.00  1.00 -1.00  1.00
B_3u   1.00 -1.00 -1.00  1.00 -1.00  1.00  1.00 -1.00

     the symmetry operations in each class and the name of the first element:

     E        1
          identity                                               
     C2       2
          180 deg rotation - cart. axis [0,0,1]                  
     C2'      4
          180 deg rotation - cart. axis [1,0,0]                  
     C2''     3
          180 deg rotation - cart. axis [0,1,0]                  
     i        5
          inversion                                              
     s_v      6
          inv. 180 deg rotation - cart. axis [0,0,1]             
     s_v'     8
          inv. 180 deg rotation - cart. axis [1,0,0]             
     s_v''    7
          inv. 180 deg rotation - cart. axis [0,1,0]             

   Cartesian axes

     site n.     atom                  positions (alat units)
         1           Pb  tau(   1) = (  -0.5000000   0.1043579   1.0990522  )
         2           Pb  tau(   2) = (   0.0000000   0.1043579   0.3787909  )
         3           Br  tau(   3) = (   0.2047100   0.1043579   0.3910077  )
         4           Br  tau(   4) = (  -0.2047100   0.1043579   0.3910077  )
         5           Br  tau(   5) = (  -0.7047100   0.1043579   1.0868353  )
         6           Br  tau(   6) = (  -0.2952900   0.1043579   1.0868353  )
         7           Br  tau(   7) = (  -0.5000000   0.1043579   0.8773757  )
         8           Br  tau(   8) = (   0.0000000   0.1043579   0.6004673  )
         9           Br  tau(   9) = (   0.0000000   0.3130736   0.8010402  )
        10           Br  tau(  10) = (  -0.5000000  -0.1043579   0.6768029  )
        11           C   tau(  11) = (  -0.2030000   0.1043579   0.7616803  )
        12           C   tau(  12) = (   0.2030000   0.1043579   0.7616803  )
        13           C   tau(  13) = (  -0.2970000   0.1043579   0.7161628  )
        14           C   tau(  14) = (  -0.7030000   0.1043579   0.7161628  )
        15           C   tau(  15) = (  -0.1221000   0.1043579   0.9089720  )
        16           C   tau(  16) = (  -0.3779000  -0.1043579   0.4163577  )
        17           C   tau(  17) = (  -0.3779000   0.1043579   0.5688711  )
        18           C   tau(  18) = (  -0.1221000   0.3130736   1.0614854  )
        19           H   tau(  19) = (  -0.3317000   0.0495491   0.7355718  )
        20           H   tau(  20) = (  -0.1683000  -0.0495491   0.2429574  )
        21           H   tau(  21) = (  -0.1683000   0.0495491   0.7422713  )
        22           H   tau(  22) = (   0.1683000   0.1591666   0.7422713  )
        23           H   tau(  23) = (  -0.1683000   0.1591666   0.7422713  )
        24           H   tau(  24) = (  -0.3317000   0.2582648   1.2348857  )
        25           H   tau(  25) = (  -0.3317000   0.1591666   0.7355718  )
        26           H   tau(  26) = (  -0.6683000   0.0495491   0.7355718  )
        27           H   tau(  27) = (  -0.1309000   0.1043579   0.9748838  )
        28           H   tau(  28) = (  -0.3691000  -0.1043579   0.4822695  )
        29           H   tau(  29) = (  -0.3691000   0.1043579   0.5029593  )
        30           H   tau(  30) = (  -0.1309000   0.3130736   0.9955736  )
        31           H   tau(  31) = (  -0.4121500   0.1586657   0.5866052  )
        32           H   tau(  32) = (  -0.5878500   0.0500500   0.5866052  )
        33           H   tau(  33) = (  -0.0878500   0.1586657   0.8912379  )
        34           H   tau(  34) = (   0.0878500   0.0500500   0.8912379  )
        35           H   tau(  35) = (  -0.0878500   0.0500500   0.8912379  )
        36           H   tau(  36) = (   0.0878500   0.1586657   0.8912379  )
        37           H   tau(  37) = (  -0.4121500   0.0500500   0.5866052  )
        38           H   tau(  38) = (  -0.5878500   0.1586657   0.5866052  )
        39           H   tau(  39) = (  -0.2522000   0.0495909   0.5964575  )
        40           H   tau(  40) = (   0.2522000   0.1591249   0.5964575  )
        41           H   tau(  41) = (  -0.2478000   0.0495909   0.8813856  )
        42           H   tau(  42) = (  -0.2522000  -0.0495909   0.3887712  )
        43           H   tau(  43) = (  -0.2478000   0.1591249   0.8813856  )
        44           H   tau(  44) = (  -0.7522000   0.0495909   0.8813856  )
        45           H   tau(  45) = (  -0.2522000   0.1591249   0.5964575  )
        46           H   tau(  46) = (  -0.2478000   0.2583066   1.0890718  )
        47           N   tau(  47) = (  -0.2128000   0.1043579   0.8622722  )
        48           N   tau(  48) = (  -0.2872000  -0.1043579   0.3696578  )
        49           N   tau(  49) = (  -0.2872000   0.1043579   0.6155709  )
        50           N   tau(  50) = (  -0.2128000   0.3130736   1.1081853  )

   Crystallographic axes

     site n.     atom                  positions (cryst. coord.)
         1           Pb  tau(   1) = (  0.6155300  0.7500000  0.8655300  )
         2           Pb  tau(   2) = (  0.3844700  0.2500000  0.1344700  )
         3           Br  tau(   3) = (  0.6015800  0.0452900  0.1468700  )
         4           Br  tau(   4) = (  0.1921600  0.4547100  0.1468700  )
         5           Br  tau(   5) = (  0.3984200  0.9547100  0.8531300  )
         6           Br  tau(   6) = (  0.8078400  0.5452900  0.8531300  )
         7           Br  tau(   7) = (  0.3905300  0.7500000  0.6405300  )
         8           Br  tau(   8) = (  0.6094700  0.2500000  0.3594700  )
         9           Br  tau(   9) = (  0.8130500  0.7500000  0.0630500  )
        10           Br  tau(  10) = (  0.1869500  0.2500000  0.9369500  )
        11           C   tau(  11) = (  0.5701000  0.4530000  0.5231000  )
        12           C   tau(  12) = (  0.9761000  0.0470000  0.5231000  )
        13           C   tau(  13) = (  0.4299000  0.5470000  0.4769000  )
        14           C   tau(  14) = (  0.0239000  0.9530000  0.4769000  )
        15           C   tau(  15) = (  0.8005000  0.3721000  0.6726000  )
        16           C   tau(  16) = (  0.0447000  0.1279000  0.6726000  )
        17           C   tau(  17) = (  0.1995000  0.6279000  0.3274000  )
        18           C   tau(  18) = (  0.9553000  0.8721000  0.3274000  )
        19           H   tau(  19) = (  0.4149000  0.4504000  0.6279000  )
        20           H   tau(  20) = (  0.0783000  0.0496000  0.3653000  )
        21           H   tau(  21) = (  0.5851000  0.2870000  0.6347000  )
        22           H   tau(  22) = (  0.9217000  0.2130000  0.3721000  )
        23           H   tau(  23) = (  0.5851000  0.5496000  0.3721000  )
        24           H   tau(  24) = (  0.9217000  0.9504000  0.6347000  )
        25           H   tau(  25) = (  0.4149000  0.7130000  0.3653000  )
        26           H   tau(  26) = (  0.0783000  0.7870000  0.6279000  )
        27           H   tau(  27) = (  0.8586000  0.3809000  0.7395000  )
        28           H   tau(  28) = (  0.1204000  0.1191000  0.7395000  )
        29           H   tau(  29) = (  0.1414000  0.6191000  0.2605000  )
        30           H   tau(  30) = (  0.8796000  0.8809000  0.2605000  )
        31           H   tau(  31) = (  0.1832500  0.7922500  0.2153000  )
        32           H   tau(  32) = (  0.0075500  0.7077500  0.4755000  )
        33           H   tau(  33) = (  0.8167500  0.4679500  0.5245000  )
        34           H   tau(  34) = (  0.9924500  0.0320500  0.7847000  )
        35           H   tau(  35) = (  0.8167500  0.2077500  0.7847000  )
        36           H   tau(  36) = (  0.9924500  0.2922500  0.5245000  )
        37           H   tau(  37) = (  0.1832500  0.5320500  0.4755000  )
        38           H   tau(  38) = (  0.0075500  0.9679500  0.2153000  )
        39           H   tau(  39) = (  0.3532000  0.3710000  0.4866000  )
        40           H   tau(  40) = (  0.8576000  0.1290000  0.2242000  )
        41           H   tau(  41) = (  0.6468000  0.3666000  0.7758000  )
        42           H   tau(  42) = (  0.1424000  0.1334000  0.5134000  )
        43           H   tau(  43) = (  0.6468000  0.6290000  0.5134000  )
        44           H   tau(  44) = (  0.1424000  0.8710000  0.7758000  )
        45           H   tau(  45) = (  0.3532000  0.6334000  0.2242000  )
        46           H   tau(  46) = (  0.8576000  0.8666000  0.4866000  )
        47           N   tau(  47) = (  0.6624000  0.4628000  0.6252000  )
        48           N   tau(  48) = (  0.0880000  0.0372000  0.6252000  )
        49           N   tau(  49) = (  0.3376000  0.5372000  0.3748000  )
        50           N   tau(  50) = (  0.9120000  0.9628000  0.3748000  )

     number of k points=     8
                       cart. coord. in units 2pi/alat
        k(    1) = (   0.0000000   0.0000000   0.3383309), wk =   0.1481481
        k(    2) = (  -0.0000000   1.5970686  -0.3383309), wk =   0.2962963
        k(    3) = (  -0.0000000   0.7985343  -0.0000000), wk =   0.1481481
        k(    4) = (   0.6666667  -1.5970686   0.3383309), wk =   0.5925926
        k(    5) = (   0.6666667   0.0000000  -0.3383309), wk =   0.2962963
        k(    6) = (   0.6666667  -0.7985343  -0.0000000), wk =   0.2962963
        k(    7) = (   0.3333333   0.0000000  -0.0000000), wk =   0.1481481
        k(    8) = (  -0.0000000   0.0000000  -1.0149928), wk =   0.0740741

                       cryst. coord.
        k(    1) = (   0.1666667   0.1666667   0.1666667), wk =   0.1481481
        k(    2) = (   0.1666667   0.1666667  -0.5000000), wk =   0.2962963
        k(    3) = (   0.1666667   0.1666667  -0.1666667), wk =   0.1481481
        k(    4) = (   0.1666667  -0.5000000   0.1666667), wk =   0.5925926
        k(    5) = (   0.1666667  -0.5000000  -0.5000000), wk =   0.2962963
        k(    6) = (   0.1666667  -0.5000000  -0.1666667), wk =   0.2962963
        k(    7) = (   0.1666667  -0.1666667  -0.1666667), wk =   0.1481481
        k(    8) = (  -0.5000000  -0.5000000  -0.5000000), wk =   0.0740741

     Dense  grid:   272423 G-vectors     FFT dimensions: ( 100, 100, 100)

     Dynamical RAM for                 wfc:       1.52 MB

     Dynamical RAM for     wfc (w. buffer):       7.61 MB

     Dynamical RAM for           str. fact:       0.74 MB

     Dynamical RAM for           local pot:       0.00 MB

     Dynamical RAM for          nlocal pot:       7.72 MB

     Dynamical RAM for                qrad:      12.44 MB

     Dynamical RAM for          rho,v,vnew:       1.36 MB

     Dynamical RAM for               rhoin:       0.45 MB

     Dynamical RAM for            rho*nmix:       2.38 MB

     Dynamical RAM for           G-vectors:       0.63 MB

     Dynamical RAM for          h,s,v(r/c):       1.23 MB

     Dynamical RAM for          <psi|beta>:       0.52 MB

     Dynamical RAM for                 psi:       3.04 MB

     Dynamical RAM for                hpsi:       3.04 MB

     Dynamical RAM for      wfcinit/wfcrot:       5.04 MB

     Estimated static dynamical RAM per process >      33.37 MB

     Estimated max dynamical RAM per process >      43.58 MB

     Estimated total dynamical RAM >       2.32 GB

     Initial potential from superposition of free atoms

     starting charge     163.9949, renormalised to     164.0000
     Starting wfcs are  126 randomized atomic wfcs

     total cpu time spent up to now is        2.0 secs

     Self-consistent Calculation

     iteration #  1     ecut=    60.00 Ry     beta= 0.50
     Davidson diagonalization with overlap

---- Real-time Memory Report at c_bands before calling an iterative solver
           191 MiB given to the printing process from OS
             0 MiB allocation reported by mallinfo(arena+hblkhd)
         47794 MiB available memory on the node where the printing process lives
------------------
     ethr =  1.00E-02,  avg # of iterations =  2.0

     total cpu time spent up to now is        3.1 secs

     total energy              =    -745.66188037 Ry
     estimated scf accuracy    <       4.25635751 Ry

     iteration #  2     ecut=    60.00 Ry     beta= 0.50
     Davidson diagonalization with overlap

---- Real-time Memory Report at c_bands before calling an iterative solver
           202 MiB given to the printing process from OS
             0 MiB allocation reported by mallinfo(arena+hblkhd)
         47588 MiB available memory on the node where the printing process lives
------------------
     ethr =  2.60E-03,  avg # of iterations =  2.0

     total cpu time spent up to now is        4.2 secs

     total energy              =    -746.15181853 Ry
     estimated scf accuracy    <       0.36902869 Ry

     iteration #  3     ecut=    60.00 Ry     beta= 0.50
     Davidson diagonalization with overlap

---- Real-time Memory Report at c_bands before calling an iterative solver
           206 MiB given to the printing process from OS
             0 MiB allocation reported by mallinfo(arena+hblkhd)
         47553 MiB available memory on the node where the printing process lives
------------------
     ethr =  2.25E-04,  avg # of iterations =  2.0

     total cpu time spent up to now is        5.3 secs

     total energy              =    -746.17857123 Ry
     estimated scf accuracy    <       0.05276499 Ry

     iteration #  4     ecut=    60.00 Ry     beta= 0.50
     Davidson diagonalization with overlap

---- Real-time Memory Report at c_bands before calling an iterative solver
           207 MiB given to the printing process from OS
             0 MiB allocation reported by mallinfo(arena+hblkhd)
         47538 MiB available memory on the node where the printing process lives
------------------
     ethr =  3.22E-05,  avg # of iterations =  2.0

     total cpu time spent up to now is        6.3 secs

     total energy              =    -746.18290994 Ry
     estimated scf accuracy    <       0.00347493 Ry

     iteration #  5     ecut=    60.00 Ry     beta= 0.50
     Davidson diagonalization with overlap

---- Real-time Memory Report at c_bands before calling an iterative solver
           208 MiB given to the printing process from OS
             0 MiB allocation reported by mallinfo(arena+hblkhd)
         47523 MiB available memory on the node where the printing process lives
------------------
     ethr =  2.12E-06,  avg # of iterations =  4.0

     total cpu time spent up to now is        7.6 secs

     total energy              =    -746.18358009 Ry
     estimated scf accuracy    <       0.00033457 Ry

     iteration #  6     ecut=    60.00 Ry     beta= 0.50
     Davidson diagonalization with overlap

---- Real-time Memory Report at c_bands before calling an iterative solver
           208 MiB given to the printing process from OS
             0 MiB allocation reported by mallinfo(arena+hblkhd)
         47510 MiB available memory on the node where the printing process lives
------------------
     ethr =  2.04E-07,  avg # of iterations =  4.0

     total cpu time spent up to now is        9.0 secs

     total energy              =    -746.18366408 Ry
     estimated scf accuracy    <       0.00004019 Ry

     iteration #  7     ecut=    60.00 Ry     beta= 0.50
     Davidson diagonalization with overlap

---- Real-time Memory Report at c_bands before calling an iterative solver
           209 MiB given to the printing process from OS
             0 MiB allocation reported by mallinfo(arena+hblkhd)
         47504 MiB available memory on the node where the printing process lives
------------------
     ethr =  2.45E-08,  avg # of iterations =  3.2

     total cpu time spent up to now is       10.2 secs

     total energy              =    -746.18367268 Ry
     estimated scf accuracy    <       0.00000499 Ry

     iteration #  8     ecut=    60.00 Ry     beta= 0.50
     Davidson diagonalization with overlap

---- Real-time Memory Report at c_bands before calling an iterative solver
           209 MiB given to the printing process from OS
             0 MiB allocation reported by mallinfo(arena+hblkhd)
         47494 MiB available memory on the node where the printing process lives
------------------
     ethr =  3.05E-09,  avg # of iterations =  4.0

     total cpu time spent up to now is       11.5 secs

     total energy              =    -746.18367425 Ry
     estimated scf accuracy    <       0.00000066 Ry

     iteration #  9     ecut=    60.00 Ry     beta= 0.50
     Davidson diagonalization with overlap

---- Real-time Memory Report at c_bands before calling an iterative solver
           210 MiB given to the printing process from OS
             0 MiB allocation reported by mallinfo(arena+hblkhd)
         47486 MiB available memory on the node where the printing process lives
------------------
     ethr =  4.03E-10,  avg # of iterations =  3.8

     total cpu time spent up to now is       12.8 secs

     total energy              =    -746.18367436 Ry
     estimated scf accuracy    <       0.00000008 Ry

     iteration # 10     ecut=    60.00 Ry     beta= 0.50
     Davidson diagonalization with overlap

---- Real-time Memory Report at c_bands before calling an iterative solver
           211 MiB given to the printing process from OS
             0 MiB allocation reported by mallinfo(arena+hblkhd)
         47477 MiB available memory on the node where the printing process lives
------------------
     ethr =  5.18E-11,  avg # of iterations =  4.0

     total cpu time spent up to now is       14.3 secs

     total energy              =    -746.18367440 Ry
     estimated scf accuracy    <       0.00000004 Ry

     iteration # 11     ecut=    60.00 Ry     beta= 0.50
     Davidson diagonalization with overlap

---- Real-time Memory Report at c_bands before calling an iterative solver
           211 MiB given to the printing process from OS
             0 MiB allocation reported by mallinfo(arena+hblkhd)
         47470 MiB available memory on the node where the printing process lives
------------------
     ethr =  2.34E-11,  avg # of iterations =  2.0

     total cpu time spent up to now is       15.3 secs

     total energy              =    -746.18367440 Ry
     estimated scf accuracy    <          8.0E-09 Ry

     iteration # 12     ecut=    60.00 Ry     beta= 0.50
     Davidson diagonalization with overlap

---- Real-time Memory Report at c_bands before calling an iterative solver
           211 MiB given to the printing process from OS
             0 MiB allocation reported by mallinfo(arena+hblkhd)
         47470 MiB available memory on the node where the printing process lives
------------------
     ethr =  4.85E-12,  avg # of iterations =  4.0

     total cpu time spent up to now is       16.6 secs

     total energy              =    -746.18367441 Ry
     estimated scf accuracy    <          2.1E-09 Ry

     iteration # 13     ecut=    60.00 Ry     beta= 0.50
     Davidson diagonalization with overlap

---- Real-time Memory Report at c_bands before calling an iterative solver
           211 MiB given to the printing process from OS
             0 MiB allocation reported by mallinfo(arena+hblkhd)
         47471 MiB available memory on the node where the printing process lives
------------------
     ethr =  1.29E-12,  avg # of iterations =  3.0

     total cpu time spent up to now is       17.8 secs

     total energy              =    -746.18367441 Ry
     estimated scf accuracy    <          3.1E-11 Ry

     iteration # 14     ecut=    60.00 Ry     beta= 0.50
     Davidson diagonalization with overlap

---- Real-time Memory Report at c_bands before calling an iterative solver
           211 MiB given to the printing process from OS
             0 MiB allocation reported by mallinfo(arena+hblkhd)
         47471 MiB available memory on the node where the printing process lives
------------------
     ethr =  1.00E-13,  avg # of iterations =  3.9

     total cpu time spent up to now is       19.1 secs

     total energy              =    -746.18367441 Ry
     estimated scf accuracy    <          3.7E-11 Ry

     iteration # 15     ecut=    60.00 Ry     beta= 0.50
     Davidson diagonalization with overlap

---- Real-time Memory Report at c_bands before calling an iterative solver
           211 MiB given to the printing process from OS
             0 MiB allocation reported by mallinfo(arena+hblkhd)
         47471 MiB available memory on the node where the printing process lives
------------------
     ethr =  1.00E-13,  avg # of iterations =  2.0

     total cpu time spent up to now is       20.0 secs

     total energy              =    -746.18367441 Ry
     estimated scf accuracy    <          1.6E-12 Ry

     iteration # 16     ecut=    60.00 Ry     beta= 0.50
     Davidson diagonalization with overlap

---- Real-time Memory Report at c_bands before calling an iterative solver
           211 MiB given to the printing process from OS
             0 MiB allocation reported by mallinfo(arena+hblkhd)
         47471 MiB available memory on the node where the printing process lives
------------------
     ethr =  1.00E-13,  avg # of iterations =  1.0

     total cpu time spent up to now is       20.9 secs

     End of self-consistent calculation

          k = 0.0000 0.0000 0.3383 ( 34019 PWs)   bands (ev):

   -18.6390 -18.6302 -18.3255 -18.3195 -13.8387 -13.8039 -13.7593 -13.7537
   -13.7270 -13.7191 -13.7169 -13.7112 -13.6829 -13.6801 -13.2183 -13.1707
   -11.8049 -11.7169 -11.6201 -11.4003 -11.3692 -11.3068 -11.2137 -11.1174
   -11.0809 -10.9809 -10.9339 -10.8400 -10.1704 -10.1521  -8.3143  -8.2944
    -7.9118  -7.8634  -6.7961  -6.7192  -6.3969  -6.3345  -5.4748  -5.4355
    -5.1568  -4.9332  -4.7649  -4.7573  -4.7346  -4.6528  -3.9502  -3.8049
    -3.6384  -3.5961  -3.5804  -3.5491  -3.4402  -3.4357  -2.7507  -2.7063
    -2.6572  -2.6373  -1.1777  -0.7249  -0.6125  -0.5337  -0.1529   0.2665
     0.4510   0.4649   0.6163   0.6374   0.7075   0.7325   0.8347   0.8380
     0.8908   0.9302   1.1032   1.1231   1.1348   1.1994   1.2084   1.2964
     1.4322   1.5424

     occupation numbers 
     1.0000   1.0000   1.0000   1.0000   1.0000   1.0000   1.0000   1.0000
     1.0000   1.0000   1.0000   1.0000   1.0000   1.0000   1.0000   1.0000
     1.0000   1.0000   1.0000   1.0000   1.0000   1.0000   1.0000   1.0000
     1.0000   1.0000   1.0000   1.0000   1.0000   1.0000   1.0000   1.0000
     1.0000   1.0000   1.0000   1.0000   1.0000   1.0000   1.0000   1.0000
     1.0000   1.0000   1.0000   1.0000   1.0000   1.0000   1.0000   1.0000
     1.0000   1.0000   1.0000   1.0000   1.0000   1.0000   1.0000   1.0000
     1.0000   1.0000   1.0000   1.0000   1.0000   1.0000   1.0000   1.0000
     1.0000   1.0000   1.0000   1.0000   1.0000   1.0000   1.0000   1.0000
     1.0000   1.0000   1.0000   1.0000   1.0000   1.0000   1.0000   1.0000
     1.0000   1.0000

          k =-0.0000 1.5971-0.3383 ( 34056 PWs)   bands (ev):

   -18.6335 -18.6319 -18.3242 -18.3175 -13.7986 -13.7778 -13.7614 -13.7566
   -13.7229 -13.7191 -13.7180 -13.7152 -13.6821 -13.6807 -13.1978 -13.1871
   -11.8233 -11.6631 -11.5610 -11.4272 -11.3048 -11.2883 -11.2045 -11.2013
   -11.1902 -11.0956 -10.9634 -10.9175 -10.2096 -10.1949  -8.1943  -8.1748
    -7.7932  -7.7810  -6.7862  -6.7744  -6.4115  -6.3191  -5.5515  -5.4130
    -5.1882  -5.0788  -5.0395  -4.9413  -4.7683  -4.7458  -3.8717  -3.8080
    -3.7334  -3.5833  -3.5758  -3.5629  -3.4353  -3.3863  -2.6776  -2.6645
    -2.6518  -2.6436  -0.3982  -0.3026  -0.1298  -0.1296   0.1147   0.1267
     0.2672   0.3005   0.4588   0.5516   0.6879   0.7391   0.7569   0.8812
     0.9393   0.9768   1.0137   1.1137   1.1632   1.1865   1.2286   1.2761
     1.6665   1.8229

     occupation numbers 
     1.0000   1.0000   1.0000   1.0000   1.0000   1.0000   1.0000   1.0000
     1.0000   1.0000   1.0000   1.0000   1.0000   1.0000   1.0000   1.0000
     1.0000   1.0000   1.0000   1.0000   1.0000   1.0000   1.0000   1.0000
     1.0000   1.0000   1.0000   1.0000   1.0000   1.0000   1.0000   1.0000
     1.0000   1.0000   1.0000   1.0000   1.0000   1.0000   1.0000   1.0000
     1.0000   1.0000   1.0000   1.0000   1.0000   1.0000   1.0000   1.0000
     1.0000   1.0000   1.0000   1.0000   1.0000   1.0000   1.0000   1.0000
     1.0000   1.0000   1.0000   1.0000   1.0000   1.0000   1.0000   1.0000
     1.0000   1.0000   1.0000   1.0000   1.0000   1.0000   1.0000   1.0000
     1.0000   1.0000   1.0000   1.0000   1.0000   1.0000   1.0000   1.0000
     1.0000   1.0000

          k =-0.0000 0.7985-0.0000 ( 34042 PWs)   bands (ev):

   -18.6370 -18.6283 -18.3239 -18.3178 -13.7985 -13.7780 -13.7613 -13.7566
   -13.7229 -13.7191 -13.7179 -13.7152 -13.6821 -13.6807 -13.2169 -13.1696
   -11.7709 -11.7003 -11.5580 -11.4293 -11.3207 -11.2663 -11.2624 -11.2092
   -11.1861 -11.0694 -10.9605 -10.9094 -10.2102 -10.1901  -8.1943  -8.1728
    -7.8093  -7.7658  -6.8246  -6.7437  -6.3941  -6.3322  -5.4979  -5.4581
    -5.1564  -5.0927  -5.0683  -4.9338  -4.7771  -4.7348  -3.9588  -3.7344
    -3.6653  -3.6611  -3.6030  -3.4952  -3.4657  -3.3790  -2.6738  -2.6680
    -2.6561  -2.6410  -0.4038  -0.3593  -0.1111  -0.0505   0.1238   0.1863
     0.2243   0.2687   0.4624   0.5834   0.6851   0.7461   0.7750   0.8514
     0.8640   0.9264   1.0299   1.1036   1.1071   1.2321   1.2679   1.2740
     1.7540   1.7776

     occupation numbers 
     1.0000   1.0000   1.0000   1.0000   1.0000   1.0000   1.0000   1.0000
     1.0000   1.0000   1.0000   1.0000   1.0000   1.0000   1.0000   1.0000
     1.0000   1.0000   1.0000   1.0000   1.0000   1.0000   1.0000   1.0000
     1.0000   1.0000   1.0000   1.0000   1.0000   1.0000   1.0000   1.0000
     1.0000   1.0000   1.0000   1.0000   1.0000   1.0000   1.0000   1.0000
     1.0000   1.0000   1.0000   1.0000   1.0000   1.0000   1.0000   1.0000
     1.0000   1.0000   1.0000   1.0000   1.0000   1.0000   1.0000   1.0000
     1.0000   1.0000   1.0000   1.0000   1.0000   1.0000   1.0000   1.0000
     1.0000   1.0000   1.0000   1.0000   1.0000   1.0000   1.0000   1.0000
     1.0000   1.0000   1.0000   1.0000   1.0000   1.0000   1.0000   1.0000
     1.0000   1.0000

          k = 0.6667-1.5971 0.3383 ( 34038 PWs)   bands (ev):

   -18.6348 -18.6305 -18.3223 -18.3193 -13.7986 -13.7779 -13.7613 -13.7566
   -13.7229 -13.7191 -13.7179 -13.7152 -13.6821 -13.6807 -13.2048 -13.1811
   -11.7637 -11.7269 -11.5594 -11.4272 -11.3065 -11.2747 -11.2254 -11.1923
   -11.1850 -11.1105 -10.9509 -10.9184 -10.2063 -10.1960  -8.1896  -8.1790
    -7.7982  -7.7764  -6.8025  -6.7625  -6.3792  -6.3482  -5.5002  -5.4817
    -5.1253  -5.0781  -5.0556  -4.9763  -4.7652  -4.7437  -3.8866  -3.7838
    -3.7120  -3.6825  -3.5436  -3.5278  -3.4137  -3.4046  -2.6724  -2.6698
    -2.6531  -2.6438  -0.4020  -0.3221  -0.1203  -0.0903   0.1118   0.1543
     0.2358   0.2848   0.4667   0.5686   0.6797   0.7396   0.8087   0.8424
     0.8716   0.9630   1.0231   1.0895   1.1341   1.2136   1.2350   1.2787
     1.7395   1.8203

     occupation numbers 
     1.0000   1.0000   1.0000   1.0000   1.0000   1.0000   1.0000   1.0000
     1.0000   1.0000   1.0000   1.0000   1.0000   1.0000   1.0000   1.0000
     1.0000   1.0000   1.0000   1.0000   1.0000   1.0000   1.0000   1.0000
     1.0000   1.0000   1.0000   1.0000   1.0000   1.0000   1.0000   1.0000
     1.0000   1.0000   1.0000   1.0000   1.0000   1.0000   1.0000   1.0000
     1.0000   1.0000   1.0000   1.0000   1.0000   1.0000   1.0000   1.0000
     1.0000   1.0000   1.0000   1.0000   1.0000   1.0000   1.0000   1.0000
     1.0000   1.0000   1.0000   1.0000   1.0000   1.0000   1.0000   1.0000
     1.0000   1.0000   1.0000   1.0000   1.0000   1.0000   1.0000   1.0000
     1.0000   1.0000   1.0000   1.0000   1.0000   1.0000   1.0000   1.0000
     1.0000   1.0000

          k = 0.6667 0.0000-0.3383 ( 34079 PWs)   bands (ev):

   -18.6377 -18.6317 -18.3274 -18.3177 -13.8387 -13.8038 -13.7592 -13.7538
   -13.7270 -13.7191 -13.7169 -13.7112 -13.6829 -13.6801 -13.2003 -13.1872
   -11.8404 -11.7079 -11.6176 -11.4026 -11.3403 -11.2953 -11.1700 -11.1346
   -11.0787 -11.0480 -10.9011 -10.8477 -10.1750 -10.1502  -8.3205  -8.2892
    -7.9035  -7.8708  -6.7698  -6.7440  -6.3979  -6.3368  -5.5178  -5.4093
    -5.0893  -4.9929  -4.7972  -4.7330  -4.7308  -4.6492  -3.8776  -3.7582
    -3.7236  -3.6885  -3.5995  -3.4990  -3.4392  -3.3969  -2.7291  -2.7259
    -2.6526  -2.6413  -1.1986  -0.7064  -0.6096  -0.4932  -0.1971   0.2492
     0.4086   0.5042   0.5992   0.6598   0.7091   0.7474   0.7830   0.8478
     0.9341   0.9422   1.0827   1.0975   1.1296   1.1493   1.1792   1.3127
     1.5097   1.5760

     occupation numbers 
     1.0000   1.0000   1.0000   1.0000   1.0000   1.0000   1.0000   1.0000
     1.0000   1.0000   1.0000   1.0000   1.0000   1.0000   1.0000   1.0000
     1.0000   1.0000   1.0000   1.0000   1.0000   1.0000   1.0000   1.0000
     1.0000   1.0000   1.0000   1.0000   1.0000   1.0000   1.0000   1.0000
     1.0000   1.0000   1.0000   1.0000   1.0000   1.0000   1.0000   1.0000
     1.0000   1.0000   1.0000   1.0000   1.0000   1.0000   1.0000   1.0000
     1.0000   1.0000   1.0000   1.0000   1.0000   1.0000   1.0000   1.0000
     1.0000   1.0000   1.0000   1.0000   1.0000   1.0000   1.0000   1.0000
     1.0000   1.0000   1.0000   1.0000   1.0000   1.0000   1.0000   1.0000
     1.0000   1.0000   1.0000   1.0000   1.0000   1.0000   1.0000   1.0000
     1.0000   1.0000

          k = 0.6667-0.7985-0.0000 ( 34061 PWs)   bands (ev):

   -18.6356 -18.6296 -18.3257 -18.3160 -13.7986 -13.7778 -13.7614 -13.7566
   -13.7229 -13.7191 -13.7180 -13.7152 -13.6821 -13.6807 -13.1990 -13.1860
   -11.8095 -11.6854 -11.5601 -11.4265 -11.3087 -11.2745 -11.2126 -11.1879
   -11.1608 -11.1421 -10.9437 -10.9286 -10.2145 -10.1897  -8.1993  -8.1690
    -7.8042  -7.7701  -6.7967  -6.7692  -6.3952  -6.3341  -5.5412  -5.4295
    -5.1604  -5.0480  -5.0371  -4.9914  -4.7807  -4.7368  -3.8633  -3.8430
    -3.6694  -3.6307  -3.6106  -3.5116  -3.4457  -3.3815  -2.6781  -2.6627
    -2.6482  -2.6461  -0.4016  -0.2816  -0.1450  -0.1253   0.1093   0.1497
     0.2446   0.3031   0.4654   0.5517   0.6569   0.7381   0.7575   0.8807
     0.9465   0.9787   1.0099   1.0983   1.1108   1.2133   1.2349   1.2791
     1.7154   1.8339

     occupation numbers 
     1.0000   1.0000   1.0000   1.0000   1.0000   1.0000   1.0000   1.0000
     1.0000   1.0000   1.0000   1.0000   1.0000   1.0000   1.0000   1.0000
     1.0000   1.0000   1.0000   1.0000   1.0000   1.0000   1.0000   1.0000
     1.0000   1.0000   1.0000   1.0000   1.0000   1.0000   1.0000   1.0000
     1.0000   1.0000   1.0000   1.0000   1.0000   1.0000   1.0000   1.0000
     1.0000   1.0000   1.0000   1.0000   1.0000   1.0000   1.0000   1.0000
     1.0000   1.0000   1.0000   1.0000   1.0000   1.0000   1.0000   1.0000
     1.0000   1.0000   1.0000   1.0000   1.0000   1.0000   1.0000   1.0000
     1.0000   1.0000   1.0000   1.0000   1.0000   1.0000   1.0000   1.0000
     1.0000   1.0000   1.0000   1.0000   1.0000   1.0000   1.0000   1.0000
     1.0000   1.0000

          k = 0.3333 0.0000-0.0000 ( 34042 PWs)   bands (ev):

   -18.6419 -18.6271 -18.3306 -18.3147 -13.8387 -13.8039 -13.7593 -13.7537
   -13.7270 -13.7191 -13.7169 -13.7112 -13.6829 -13.6801 -13.2244 -13.1641
   -11.7914 -11.7397 -11.6187 -11.4001 -11.3733 -11.2593 -11.2453 -11.1057
   -11.0881 -11.0190 -10.8855 -10.8586 -10.1830 -10.1400  -8.3284  -8.2767
    -7.9300  -7.8489  -6.8092  -6.7067  -6.3656  -6.3646  -5.5006  -5.4251
    -5.1005  -4.9811  -4.7960  -4.7319  -4.7238  -4.6509  -3.9566  -3.7816
    -3.6683  -3.6126  -3.6028  -3.4814  -3.4606  -3.4349  -2.7516  -2.7056
    -2.6578  -2.6328  -1.1766  -0.7252  -0.6227  -0.5199  -0.1530   0.2854
     0.4451   0.4494   0.6443   0.6621   0.6686   0.7239   0.8071   0.8474
     0.8727   0.9667   1.0788   1.1056   1.1262   1.1620   1.1687   1.3162
     1.5219   1.5605

     occupation numbers 
     1.0000   1.0000   1.0000   1.0000   1.0000   1.0000   1.0000   1.0000
     1.0000   1.0000   1.0000   1.0000   1.0000   1.0000   1.0000   1.0000
     1.0000   1.0000   1.0000   1.0000   1.0000   1.0000   1.0000   1.0000
     1.0000   1.0000   1.0000   1.0000   1.0000   1.0000   1.0000   1.0000
     1.0000   1.0000   1.0000   1.0000   1.0000   1.0000   1.0000   1.0000
     1.0000   1.0000   1.0000   1.0000   1.0000   1.0000   1.0000   1.0000
     1.0000   1.0000   1.0000   1.0000   1.0000   1.0000   1.0000   1.0000
     1.0000   1.0000   1.0000   1.0000   1.0000   1.0000   1.0000   1.0000
     1.0000   1.0000   1.0000   1.0000   1.0000   1.0000   1.0000   1.0000
     1.0000   1.0000   1.0000   1.0000   1.0000   1.0000   1.0000   1.0000
     1.0000   1.0000

          k =-0.0000 0.0000-1.0150 ( 34126 PWs)   bands (ev):

   -18.6405 -18.6286 -18.3324 -18.3130 -13.8388 -13.8038 -13.7592 -13.7538
   -13.7270 -13.7191 -13.7169 -13.7112 -13.6830 -13.6801 -13.2051 -13.1794
   -11.8997 -11.6382 -11.6195 -11.4119 -11.3560 -11.2930 -11.1492 -11.1140
   -11.0814 -11.0459 -10.9369 -10.8381 -10.1891 -10.1397  -8.3351  -8.2721
    -7.9213  -7.8556  -6.7780  -6.7281  -6.4312  -6.3082  -5.5660  -5.3448
    -5.1502  -4.9512  -4.8301  -4.7303  -4.7039  -4.6443  -3.7940  -3.7873
    -3.7463  -3.6983  -3.6280  -3.5527  -3.4186  -3.3628  -2.7278  -2.7248
    -2.6534  -2.6362  -1.2216  -0.6870  -0.6156  -0.4711  -0.2450   0.2830
     0.3428   0.5468   0.5952   0.6877   0.7030   0.7885   0.8166   0.8836
     0.9219   0.9468   0.9959   1.0796   1.1727   1.1803   1.1875   1.3413
     1.4012   1.5575

     occupation numbers 
     1.0000   1.0000   1.0000   1.0000   1.0000   1.0000   1.0000   1.0000
     1.0000   1.0000   1.0000   1.0000   1.0000   1.0000   1.0000   1.0000
     1.0000   1.0000   1.0000   1.0000   1.0000   1.0000   1.0000   1.0000
     1.0000   1.0000   1.0000   1.0000   1.0000   1.0000   1.0000   1.0000
     1.0000   1.0000   1.0000   1.0000   1.0000   1.0000   1.0000   1.0000
     1.0000   1.0000   1.0000   1.0000   1.0000   1.0000   1.0000   1.0000
     1.0000   1.0000   1.0000   1.0000   1.0000   1.0000   1.0000   1.0000
     1.0000   1.0000   1.0000   1.0000   1.0000   1.0000   1.0000   1.0000
     1.0000   1.0000   1.0000   1.0000   1.0000   1.0000   1.0000   1.0000
     1.0000   1.0000   1.0000   1.0000   1.0000   1.0000   1.0000   1.0000
     1.0000   1.0000

     highest occupied level (ev):     1.8339

!    total energy              =    -746.18367441 Ry
     estimated scf accuracy    <          6.4E-14 Ry

     The total energy is the sum of the following terms:
     one-electron contribution =    -340.26058345 Ry
     hartree contribution      =     230.73511644 Ry
     xc contribution           =    -243.78791120 Ry
     ewald contribution        =    -392.87029620 Ry

     convergence has been achieved in  16 iterations

     Forces acting on atoms (cartesian axes, Ry/au):

     atom    1 type  1   force =    -0.00000000   -0.00000000   -0.00504718
     atom    2 type  1   force =     0.00000000    0.00000000    0.00504718
     atom    3 type  2   force =     0.00438450   -0.00000000    0.00028820
     atom    4 type  2   force =    -0.00438450    0.00000000    0.00028820
     atom    5 type  2   force =    -0.00438450    0.00000000   -0.00028820
     atom    6 type  2   force =     0.00438450   -0.00000000   -0.00028820
     atom    7 type  2   force =    -0.00000000   -0.00000000   -0.00159865
     atom    8 type  2   force =     0.00000000    0.00000000    0.00159865
     atom    9 type  2   force =     0.00000000    0.00000000    0.01088720
     atom   10 type  2   force =    -0.00000000   -0.00000000   -0.01088720
     atom   11 type  3   force =    -0.16853298    0.00000000    0.06086868
     atom   12 type  3   force =     0.16853298   -0.00000000    0.06086868
     atom   13 type  3   force =     0.16853298   -0.00000000   -0.06086868
     atom   14 type  3   force =    -0.16853298    0.00000000   -0.06086868
     atom   15 type  3   force =    -0.16668566    0.00000000   -0.08490576
     atom   16 type  3   force =     0.16668566   -0.00000000   -0.08490576
     atom   17 type  3   force =     0.16668566   -0.00000000    0.08490576
     atom   18 type  3   force =    -0.16668566    0.00000000    0.08490576
     atom   19 type  4   force =    -0.09134050   -0.14973375    0.03948303
     atom   20 type  4   force =     0.09134050    0.14973375    0.03948303
     atom   21 type  4   force =     0.09134050   -0.14973375   -0.03948303
     atom   22 type  4   force =    -0.09134050    0.14973375   -0.03948303
     atom   23 type  4   force =     0.09134050    0.14973375   -0.03948303
     atom   24 type  4   force =    -0.09134050   -0.14973375   -0.03948303
     atom   25 type  4   force =    -0.09134050    0.14973375    0.03948303
     atom   26 type  4   force =     0.09134050   -0.14973375    0.03948303
     atom   27 type  4   force =    -0.03939367   -0.00000000    0.21438968
     atom   28 type  4   force =     0.03939367   -0.00000000    0.21438968
     atom   29 type  4   force =     0.03939367    0.00000000   -0.21438968
     atom   30 type  4   force =    -0.03939367    0.00000000   -0.21438968
     atom   31 type  4   force =    -0.10176746    0.17804442    0.06463818
     atom   32 type  4   force =     0.10176746   -0.17804442    0.06463818
     atom   33 type  4   force =     0.10176746    0.17804442   -0.06463818
     atom   34 type  4   force =    -0.10176746   -0.17804442   -0.06463818
     atom   35 type  4   force =     0.10176746   -0.17804442   -0.06463818
     atom   36 type  4   force =    -0.10176746    0.17804442   -0.06463818
     atom   37 type  4   force =    -0.10176746   -0.17804442    0.06463818
     atom   38 type  4   force =     0.10176746    0.17804442    0.06463818
     atom   39 type  4   force =     0.04103130   -0.07003991   -0.02373186
     atom   40 type  4   force =    -0.04103130    0.07003991   -0.02373186
     atom   41 type  4   force =    -0.04103130   -0.07003991    0.02373186
     atom   42 type  4   force =     0.04103130    0.07003991    0.02373186
     atom   43 type  4   force =    -0.04103130    0.07003991    0.02373186
     atom   44 type  4   force =     0.04103130   -0.07003991    0.02373186
     atom   45 type  4   force =     0.04103130    0.07003991   -0.02373186
     atom   46 type  4   force =    -0.04103130   -0.07003991   -0.02373186
     atom   47 type  5   force =     0.08443771   -0.00000000   -0.03710100
     atom   48 type  5   force =    -0.08443771   -0.00000000   -0.03710100
     atom   49 type  5   force =    -0.08443771    0.00000000    0.03710100
     atom   50 type  5   force =     0.08443771    0.00000000    0.03710100
     The non-local contrib.  to forces
     atom    1 type  1   force =     0.00000000   -0.00000000    0.12152392
     atom    2 type  1   force =    -0.00000000    0.00000000   -0.12152392
     atom    3 type  2   force =    -0.02585307    0.00000000    0.00614841
     atom    4 type  2   force =     0.02585307    0.00000000    0.00614841
     atom    5 type  2   force =     0.02585307   -0.00000000   -0.00614841
     atom    6 type  2   force =    -0.02585307   -0.00000000   -0.00614841
     atom    7 type  2   force =     0.00000000   -0.00000000    0.02855802
     atom    8 type  2   force =    -0.00000000    0.00000000   -0.02855802
     atom    9 type  2   force =    -0.00000000    0.00000000   -0.06241603
     atom   10 type  2   force =     0.00000000   -0.00000000    0.06241603
     atom   11 type  3   force =    -0.25971230   -0.00000000    0.38112375
     atom   12 type  3   force =     0.25971230    0.00000000    0.38112375
     atom   13 type  3   force =     0.25971230    0.00000000   -0.38112375
     atom   14 type  3   force =    -0.25971230   -0.00000000   -0.38112375
     atom   15 type  3   force =    -0.44867771   -0.00000000   -0.22583283
     atom   16 type  3   force =     0.44867771   -0.00000000   -0.22583283
     atom   17 type  3   force =     0.44867771    0.00000000    0.22583283
     atom   18 type  3   force =    -0.44867771    0.00000000    0.22583283
     atom   19 type  4   force =     0.10377226    0.15981423   -0.06136553
     atom   20 type  4   force =    -0.10377226   -0.15981423   -0.06136553
     atom   21 type  4   force =    -0.10377226    0.15981423    0.06136553
     atom   22 type  4   force =     0.10377226   -0.15981423    0.06136553
     atom   23 type  4   force =    -0.10377226   -0.15981423    0.06136553
     atom   24 type  4   force =     0.10377226    0.15981423    0.06136553
     atom   25 type  4   force =     0.10377226   -0.15981423   -0.06136553
     atom   26 type  4   force =    -0.10377226    0.15981423   -0.06136553
     atom   27 type  4   force =     0.02272746    0.00000000   -0.20541945
     atom   28 type  4   force =    -0.02272746   -0.00000000   -0.20541945
     atom   29 type  4   force =    -0.02272746   -0.00000000    0.20541945
     atom   30 type  4   force =     0.02272746    0.00000000    0.20541945
     atom   31 type  4   force =     0.10957070   -0.16634714   -0.05230132
     atom   32 type  4   force =    -0.10957070    0.16634714   -0.05230132
     atom   33 type  4   force =    -0.10957070   -0.16634714    0.05230132
     atom   34 type  4   force =     0.10957070    0.16634714    0.05230132
     atom   35 type  4   force =    -0.10957070    0.16634714    0.05230132
     atom   36 type  4   force =     0.10957070   -0.16634714    0.05230132
     atom   37 type  4   force =     0.10957070    0.16634714   -0.05230132
     atom   38 type  4   force =    -0.10957070   -0.16634714   -0.05230132
     atom   39 type  4   force =    -0.10994500    0.17106178    0.06115970
     atom   40 type  4   force =     0.10994500   -0.17106178    0.06115970
     atom   41 type  4   force =     0.10994500    0.17106178   -0.06115970
     atom   42 type  4   force =    -0.10994500   -0.17106178   -0.06115970
     atom   43 type  4   force =     0.10994500   -0.17106178   -0.06115970
     atom   44 type  4   force =    -0.10994500    0.17106178   -0.06115970
     atom   45 type  4   force =    -0.10994500   -0.17106178    0.06115970
     atom   46 type  4   force =     0.10994500    0.17106178    0.06115970
     atom   47 type  5   force =     0.06600222   -0.00000000   -0.06958458
     atom   48 type  5   force =    -0.06600222    0.00000000   -0.06958458
     atom   49 type  5   force =    -0.06600222    0.00000000    0.06958458
     atom   50 type  5   force =     0.06600222   -0.00000000    0.06958458
     The ionic contribution  to forces
     atom    1 type  1   force =     0.00000000    0.00000000    1.88971486
     atom    2 type  1   force =     0.00000000    0.00000000   -1.88971486
     atom    3 type  2   force =     2.41547714   -0.00000000   -0.45353859
     atom    4 type  2   force =    -2.41547714    0.00000000   -0.45353859
     atom    5 type  2   force =    -2.41547714   -0.00000000    0.45353859
     atom    6 type  2   force =     2.41547714    0.00000000    0.45353859
     atom    7 type  2   force =     0.00000000    0.00000000   -2.41297548
     atom    8 type  2   force =    -0.00000000   -0.00000000    2.41297548
     atom    9 type  2   force =     0.00000000   -0.00000000    4.60833582
     atom   10 type  2   force =     0.00000000   -0.00000000   -4.60833582
     atom   11 type  3   force =     2.45765321   -0.00000000   -1.61966449
     atom   12 type  3   force =    -2.45765321   -0.00000000   -1.61966449
     atom   13 type  3   force =    -2.45765321   -0.00000000    1.61966449
     atom   14 type  3   force =     2.45765321    0.00000000    1.61966449
     atom   15 type  3   force =     4.07577786    0.00000000    2.39408650
     atom   16 type  3   force =    -4.07577786    0.00000000    2.39408650
     atom   17 type  3   force =    -4.07577786    0.00000000   -2.39408650
     atom   18 type  3   force =     4.07577786    0.00000000   -2.39408650
     atom   19 type  4   force =    -1.80668094   -2.34216683    0.80718509
     atom   20 type  4   force =     1.80668094    2.34216683    0.80718509
     atom   21 type  4   force =     1.80668094   -2.34216683   -0.80718509
     atom   22 type  4   force =    -1.80668094    2.34216683   -0.80718509
     atom   23 type  4   force =     1.80668094    2.34216683   -0.80718509
     atom   24 type  4   force =    -1.80668094   -2.34216683   -0.80718509
     atom   25 type  4   force =    -1.80668094    2.34216683    0.80718509
     atom   26 type  4   force =     1.80668094   -2.34216683    0.80718509
     atom   27 type  4   force =     0.33595805    0.00000000    2.87892563
     atom   28 type  4   force =    -0.33595805    0.00000000    2.87892563
     atom   29 type  4   force =    -0.33595805   -0.00000000   -2.87892563
     atom   30 type  4   force =     0.33595805   -0.00000000   -2.87892563
     atom   31 type  4   force =    -1.95158871    2.24413200    0.31880419
     atom   32 type  4   force =     1.95158871   -2.24413200    0.31880419
     atom   33 type  4   force =     1.95158871    2.24413200   -0.31880419
     atom   34 type  4   force =    -1.95158871   -2.24413200   -0.31880419
     atom   35 type  4   force =     1.95158871   -2.24413200   -0.31880419
     atom   36 type  4   force =    -1.95158871    2.24413200   -0.31880419
     atom   37 type  4   force =    -1.95158871   -2.24413200    0.31880419
     atom   38 type  4   force =     1.95158871    2.24413200    0.31880419
     atom   39 type  4   force =     1.59292243   -2.47712012   -1.18372911
     atom   40 type  4   force =    -1.59292243    2.47712012   -1.18372911
     atom   41 type  4   force =    -1.59292243   -2.47712012    1.18372911
     atom   42 type  4   force =     1.59292243    2.47712012    1.18372911
     atom   43 type  4   force =    -1.59292243    2.47712012    1.18372911
     atom   44 type  4   force =     1.59292243   -2.47712012    1.18372911
     atom   45 type  4   force =     1.59292243    2.47712012   -1.18372911
     atom   46 type  4   force =    -1.59292243   -2.47712012   -1.18372911
     atom   47 type  5   force =    -0.64242908    0.00000000    2.47905256
     atom   48 type  5   force =     0.64242908   -0.00000000    2.47905256
     atom   49 type  5   force =     0.64242908   -0.00000000   -2.47905256
     atom   50 type  5   force =    -0.64242908   -0.00000000   -2.47905256
     The local contribution  to forces
     atom    1 type  1   force =    -0.00000000    0.00000000   -2.01246771
     atom    2 type  1   force =    -0.00000000   -0.00000000    2.01246771
     atom    3 type  2   force =    -2.38710583   -0.00000000    0.44807302
     atom    4 type  2   force =     2.38710583   -0.00000000    0.44807302
     atom    5 type  2   force =     2.38710583    0.00000000   -0.44807302
     atom    6 type  2   force =    -2.38710583   -0.00000000   -0.44807302
     atom    7 type  2   force =     0.00000000   -0.00000000    2.38485745
     atom    8 type  2   force =    -0.00000000    0.00000000   -2.38485745
     atom    9 type  2   force =     0.00000000    0.00000000   -4.53922672
     atom   10 type  2   force =    -0.00000000   -0.00000000    4.53922672
     atom   11 type  3   force =    -2.38516091   -0.00000000    1.32019733
     atom   12 type  3   force =     2.38516091   -0.00000000    1.32019733
     atom   13 type  3   force =     2.38516091   -0.00000000   -1.32019733
     atom   14 type  3   force =    -2.38516091   -0.00000000   -1.32019733
     atom   15 type  3   force =    -3.82093374   -0.00000000   -2.26694299
     atom   16 type  3   force =     3.82093374    0.00000000   -2.26694299
     atom   17 type  3   force =     3.82093374   -0.00000000    2.26694299
     atom   18 type  3   force =    -3.82093374   -0.00000000    2.26694299
     atom   19 type  4   force =     1.61156819    2.03261885   -0.70633653
     atom   20 type  4   force =    -1.61156819   -2.03261885   -0.70633653
     atom   21 type  4   force =    -1.61156819    2.03261885    0.70633653
     atom   22 type  4   force =     1.61156819   -2.03261885    0.70633653
     atom   23 type  4   force =    -1.61156819   -2.03261885    0.70633653
     atom   24 type  4   force =     1.61156819    2.03261885    0.70633653
     atom   25 type  4   force =     1.61156819   -2.03261885   -0.70633653
     atom   26 type  4   force =    -1.61156819    2.03261885   -0.70633653
     atom   27 type  4   force =    -0.39807918   -0.00000000   -2.45911649
     atom   28 type  4   force =     0.39807918   -0.00000000   -2.45911649
     atom   29 type  4   force =     0.39807918   -0.00000000    2.45911649
     atom   30 type  4   force =    -0.39807918   -0.00000000    2.45911649
     atom   31 type  4   force =     1.74025054   -1.89974044   -0.20186470
     atom   32 type  4   force =    -1.74025054    1.89974044   -0.20186470
     atom   33 type  4   force =    -1.74025054   -1.89974044    0.20186470
     atom   34 type  4   force =     1.74025054    1.89974044    0.20186470
     atom   35 type  4   force =    -1.74025054    1.89974044    0.20186470
     atom   36 type  4   force =     1.74025054   -1.89974044    0.20186470
     atom   37 type  4   force =     1.74025054    1.89974044   -0.20186470
     atom   38 type  4   force =    -1.74025054   -1.89974044   -0.20186470
     atom   39 type  4   force =    -1.44194613    2.23601842    1.09883754
     atom   40 type  4   force =     1.44194613   -2.23601842    1.09883754
     atom   41 type  4   force =     1.44194613    2.23601842   -1.09883754
     atom   42 type  4   force =    -1.44194613   -2.23601842   -1.09883754
     atom   43 type  4   force =     1.44194613   -2.23601842   -1.09883754
     atom   44 type  4   force =    -1.44194613    2.23601842   -1.09883754
     atom   45 type  4   force =    -1.44194613   -2.23601842    1.09883754
     atom   46 type  4   force =     1.44194613    2.23601842    1.09883754
     atom   47 type  5   force =     0.67165575    0.00000000   -2.45257090
     atom   48 type  5   force =    -0.67165575   -0.00000000   -2.45257090
     atom   49 type  5   force =    -0.67165575   -0.00000000    2.45257090
     atom   50 type  5   force =     0.67165575   -0.00000000    2.45257090
     The core correction contribution to forces
     atom    1 type  1   force =    -0.00000000   -0.00000000   -0.00381788
     atom    2 type  1   force =    -0.00000000   -0.00000000    0.00381788
     atom    3 type  2   force =     0.00186647    0.00000000   -0.00039467
     atom    4 type  2   force =    -0.00186647   -0.00000000   -0.00039467
     atom    5 type  2   force =    -0.00186647    0.00000000    0.00039467
     atom    6 type  2   force =     0.00186647   -0.00000000    0.00039467
     atom    7 type  2   force =     0.00000000   -0.00000000   -0.00203882
     atom    8 type  2   force =     0.00000000    0.00000000    0.00203882
     atom    9 type  2   force =    -0.00000000   -0.00000000    0.00419423
     atom   10 type  2   force =     0.00000000    0.00000000   -0.00419423
     atom   11 type  3   force =     0.01868703    0.00000000   -0.02078795
     atom   12 type  3   force =    -0.01868703    0.00000000   -0.02078795
     atom   13 type  3   force =    -0.01868703   -0.00000000    0.02078795
     atom   14 type  3   force =     0.01868703   -0.00000000    0.02078795
     atom   15 type  3   force =     0.02714797   -0.00000000    0.01378361
     atom   16 type  3   force =    -0.02714797    0.00000000    0.01378361
     atom   17 type  3   force =    -0.02714797   -0.00000000   -0.01378361
     atom   18 type  3   force =     0.02714797   -0.00000000   -0.01378361
     atom   19 type  4   force =     0.00000000    0.00000000    0.00000000
     atom   20 type  4   force =     0.00000000    0.00000000    0.00000000
     atom   21 type  4   force =     0.00000000    0.00000000    0.00000000
     atom   22 type  4   force =     0.00000000    0.00000000    0.00000000
     atom   23 type  4   force =     0.00000000    0.00000000    0.00000000
     atom   24 type  4   force =     0.00000000    0.00000000    0.00000000
     atom   25 type  4   force =     0.00000000    0.00000000    0.00000000
     atom   26 type  4   force =     0.00000000    0.00000000    0.00000000
     atom   27 type  4   force =     0.00000000    0.00000000    0.00000000
     atom   28 type  4   force =     0.00000000    0.00000000    0.00000000
     atom   29 type  4   force =     0.00000000    0.00000000    0.00000000
     atom   30 type  4   force =     0.00000000    0.00000000    0.00000000
     atom   31 type  4   force =     0.00000000    0.00000000    0.00000000
     atom   32 type  4   force =     0.00000000    0.00000000    0.00000000
     atom   33 type  4   force =     0.00000000    0.00000000    0.00000000
     atom   34 type  4   force =     0.00000000    0.00000000    0.00000000
     atom   35 type  4   force =     0.00000000    0.00000000    0.00000000
     atom   36 type  4   force =     0.00000000    0.00000000    0.00000000
     atom   37 type  4   force =     0.00000000    0.00000000    0.00000000
     atom   38 type  4   force =     0.00000000    0.00000000    0.00000000
     atom   39 type  4   force =     0.00000000    0.00000000    0.00000000
     atom   40 type  4   force =     0.00000000    0.00000000    0.00000000
     atom   41 type  4   force =     0.00000000    0.00000000    0.00000000
     atom   42 type  4   force =     0.00000000    0.00000000    0.00000000
     atom   43 type  4   force =     0.00000000    0.00000000    0.00000000
     atom   44 type  4   force =     0.00000000    0.00000000    0.00000000
     atom   45 type  4   force =     0.00000000    0.00000000    0.00000000
     atom   46 type  4   force =     0.00000000    0.00000000    0.00000000
     atom   47 type  5   force =    -0.01079118    0.00000000    0.00600193
     atom   48 type  5   force =     0.01079118    0.00000000    0.00600193
     atom   49 type  5   force =     0.01079118    0.00000000   -0.00600193
     atom   50 type  5   force =    -0.01079118    0.00000000   -0.00600193
     The Hubbard contrib.    to forces
     atom    1 type  1   force =     0.00000000    0.00000000    0.00000000
     atom    2 type  1   force =     0.00000000    0.00000000    0.00000000
     atom    3 type  2   force =     0.00000000    0.00000000    0.00000000
     atom    4 type  2   force =     0.00000000    0.00000000    0.00000000
     atom    5 type  2   force =     0.00000000    0.00000000    0.00000000
     atom    6 type  2   force =     0.00000000    0.00000000    0.00000000
     atom    7 type  2   force =     0.00000000    0.00000000    0.00000000
     atom    8 type  2   force =     0.00000000    0.00000000    0.00000000
     atom    9 type  2   force =     0.00000000    0.00000000    0.00000000
     atom   10 type  2   force =     0.00000000    0.00000000    0.00000000
     atom   11 type  3   force =     0.00000000    0.00000000    0.00000000
     atom   12 type  3   force =     0.00000000    0.00000000    0.00000000
     atom   13 type  3   force =     0.00000000    0.00000000    0.00000000
     atom   14 type  3   force =     0.00000000    0.00000000    0.00000000
     atom   15 type  3   force =     0.00000000    0.00000000    0.00000000
     atom   16 type  3   force =     0.00000000    0.00000000    0.00000000
     atom   17 type  3   force =     0.00000000    0.00000000    0.00000000
     atom   18 type  3   force =     0.00000000    0.00000000    0.00000000
     atom   19 type  4   force =     0.00000000    0.00000000    0.00000000
     atom   20 type  4   force =     0.00000000    0.00000000    0.00000000
     atom   21 type  4   force =     0.00000000    0.00000000    0.00000000
     atom   22 type  4   force =     0.00000000    0.00000000    0.00000000
     atom   23 type  4   force =     0.00000000    0.00000000    0.00000000
     atom   24 type  4   force =     0.00000000    0.00000000    0.00000000
     atom   25 type  4   force =     0.00000000    0.00000000    0.00000000
     atom   26 type  4   force =     0.00000000    0.00000000    0.00000000
     atom   27 type  4   force =     0.00000000    0.00000000    0.00000000
     atom   28 type  4   force =     0.00000000    0.00000000    0.00000000
     atom   29 type  4   force =     0.00000000    0.00000000    0.00000000
     atom   30 type  4   force =     0.00000000    0.00000000    0.00000000
     atom   31 type  4   force =     0.00000000    0.00000000    0.00000000
     atom   32 type  4   force =     0.00000000    0.00000000    0.00000000
     atom   33 type  4   force =     0.00000000    0.00000000    0.00000000
     atom   34 type  4   force =     0.00000000    0.00000000    0.00000000
     atom   35 type  4   force =     0.00000000    0.00000000    0.00000000
     atom   36 type  4   force =     0.00000000    0.00000000    0.00000000
     atom   37 type  4   force =     0.00000000    0.00000000    0.00000000
     atom   38 type  4   force =     0.00000000    0.00000000    0.00000000
     atom   39 type  4   force =     0.00000000    0.00000000    0.00000000
     atom   40 type  4   force =     0.00000000    0.00000000    0.00000000
     atom   41 type  4   force =     0.00000000    0.00000000    0.00000000
     atom   42 type  4   force =     0.00000000    0.00000000    0.00000000
     atom   43 type  4   force =     0.00000000    0.00000000    0.00000000
     atom   44 type  4   force =     0.00000000    0.00000000    0.00000000
     atom   45 type  4   force =     0.00000000    0.00000000    0.00000000
     atom   46 type  4   force =     0.00000000    0.00000000    0.00000000
     atom   47 type  5   force =     0.00000000    0.00000000    0.00000000
     atom   48 type  5   force =     0.00000000    0.00000000    0.00000000
     atom   49 type  5   force =     0.00000000    0.00000000    0.00000000
     atom   50 type  5   force =     0.00000000    0.00000000    0.00000000
     The SCF correction term to forces
     atom    1 type  1   force =     0.00000000   -0.00000000   -0.00000037
     atom    2 type  1   force =    -0.00000000    0.00000000    0.00000037
     atom    3 type  2   force =    -0.00000021   -0.00000000    0.00000003
     atom    4 type  2   force =     0.00000021   -0.00000000    0.00000003
     atom    5 type  2   force =     0.00000021    0.00000000   -0.00000003
     atom    6 type  2   force =    -0.00000021    0.00000000   -0.00000003
     atom    7 type  2   force =    -0.00000000   -0.00000000    0.00000018
     atom    8 type  2   force =     0.00000000    0.00000000   -0.00000018
     atom    9 type  2   force =     0.00000000    0.00000000   -0.00000009
     atom   10 type  2   force =    -0.00000000    0.00000000    0.00000009
     atom   11 type  3   force =    -0.00000001   -0.00000000    0.00000004
     atom   12 type  3   force =     0.00000001    0.00000000    0.00000004
     atom   13 type  3   force =     0.00000001   -0.00000000   -0.00000004
     atom   14 type  3   force =    -0.00000001   -0.00000000   -0.00000004
     atom   15 type  3   force =    -0.00000004   -0.00000000   -0.00000004
     atom   16 type  3   force =     0.00000004   -0.00000000   -0.00000004
     atom   17 type  3   force =     0.00000004    0.00000000    0.00000004
     atom   18 type  3   force =    -0.00000004    0.00000000    0.00000004
     atom   19 type  4   force =     0.00000000   -0.00000000    0.00000000
     atom   20 type  4   force =    -0.00000000    0.00000000    0.00000000
     atom   21 type  4   force =    -0.00000000   -0.00000000   -0.00000000
     atom   22 type  4   force =     0.00000000    0.00000000   -0.00000000
     atom   23 type  4   force =    -0.00000000    0.00000000   -0.00000000
     atom   24 type  4   force =     0.00000000   -0.00000000   -0.00000000
     atom   25 type  4   force =     0.00000000    0.00000000    0.00000000
     atom   26 type  4   force =    -0.00000000   -0.00000000    0.00000000
     atom   27 type  4   force =    -0.00000000   -0.00000000   -0.00000001
     atom   28 type  4   force =     0.00000000   -0.00000000   -0.00000001
     atom   29 type  4   force =     0.00000000    0.00000000    0.00000001
     atom   30 type  4   force =    -0.00000000    0.00000000    0.00000001
     atom   31 type  4   force =     0.00000001   -0.00000001    0.00000000
     atom   32 type  4   force =    -0.00000001    0.00000001    0.00000000
     atom   33 type  4   force =    -0.00000001   -0.00000001   -0.00000000
     atom   34 type  4   force =     0.00000001    0.00000001   -0.00000000
     atom   35 type  4   force =    -0.00000001    0.00000001   -0.00000000
     atom   36 type  4   force =     0.00000001   -0.00000001   -0.00000000
     atom   37 type  4   force =     0.00000001    0.00000001    0.00000000
     atom   38 type  4   force =    -0.00000001   -0.00000001    0.00000000
     atom   39 type  4   force =     0.00000000    0.00000001    0.00000000
     atom   40 type  4   force =    -0.00000000   -0.00000001    0.00000000
     atom   41 type  4   force =    -0.00000000    0.00000001   -0.00000000
     atom   42 type  4   force =     0.00000000   -0.00000001   -0.00000000
     atom   43 type  4   force =    -0.00000000   -0.00000001   -0.00000000
     atom   44 type  4   force =     0.00000000    0.00000001   -0.00000000
     atom   45 type  4   force =     0.00000000   -0.00000001    0.00000000
     atom   46 type  4   force =    -0.00000000    0.00000001    0.00000000
     atom   47 type  5   force =    -0.00000000    0.00000000   -0.00000001
     atom   48 type  5   force =     0.00000000    0.00000000   -0.00000001
     atom   49 type  5   force =     0.00000000    0.00000000    0.00000001
     atom   50 type  5   force =    -0.00000000   -0.00000000    0.00000001

     Total force =     1.085603     Total SCF correction =     0.000001


     Computing stress (Cartesian axis) and pressure

          total   stress  (Ry/bohr**3)                   (kbar)     P=       99.71
   0.00043980   0.00000000  -0.00000000           64.70        0.00       -0.00
   0.00000000   0.00107471   0.00000000            0.00      158.10        0.00
   0.00000000   0.00000000   0.00051896            0.00        0.00       76.34

     kinetic stress (kbar)   8424.11      0.00     -0.00
                               -0.00   8448.16     -0.00
                                0.00     -0.00   8403.73

     local   stress (kbar)  -3537.83     -0.00     -0.00
                               -0.00  -2839.66      0.00
                               -0.00      0.00  -5752.43

     nonloc. stress (kbar)   -419.91     -0.00     -0.00
                               -0.00   -482.49     -0.00
                                0.00     -0.00   -410.96

     hartree stress (kbar)   2391.73     -0.00     -0.00
                               -0.00   2109.87     -0.00
                               -0.00     -0.00   3320.86

     exc-cor stress (kbar)   1482.55      0.00     -0.00
                                0.00   1486.16     -0.00
                               -0.00     -0.00   1483.05

     corecor stress (kbar)  -3494.97      0.00      0.00
                                0.00  -3499.10      0.00
                                0.00      0.00  -3494.51

     ewald   stress (kbar)  -4780.98     -0.00     -0.00
                               -0.00  -5064.84      0.00
                               -0.00      0.00  -3473.39

     hubbard stress (kbar)      0.00      0.00      0.00
                                0.00      0.00      0.00
                                0.00      0.00      0.00

     DFT-D   stress (kbar)      0.00      0.00      0.00
                                0.00      0.00      0.00
                                0.00      0.00      0.00

     XDM     stress (kbar)      0.00      0.00      0.00
                                0.00      0.00      0.00
                                0.00      0.00      0.00

     dft-nl  stress (kbar)      0.00      0.00      0.00
                                0.00      0.00      0.00
                                0.00      0.00      0.00

     TS-vdW  stress (kbar)      0.00      0.00      0.00
                                0.00      0.00      0.00
                                0.00      0.00      0.00

     MDB     stress (kbar)      0.00      0.00      0.00
                                0.00      0.00      0.00
                                0.00      0.00      0.00

     3D-RISM stress (kbar)      0.00      0.00      0.00
                                0.00      0.00      0.00
                                0.00      0.00      0.00


     BFGS Geometry Optimization
     Energy error            =      0.0E+00 Ry
     Gradient error          =      2.1E-01 Ry/Bohr
     Cell gradient error     =      1.6E+02 kbar

     number of scf cycles    =   1
     number of bfgs steps    =   0

     enthalpy           new  =    -746.1836744068 Ry

     new trust radius        =       0.3539656376 bohr
     new conv_thr            =            1.0E-12 Ry

     new unit-cell volume =   4563.10090 a.u.^3 (   676.18179 Ang^3 )
     density =      3.03027 g/cm^3

CELL_PARAMETERS (alat= 27.63346540)
   0.505497464   0.214323458   0.499005506
  -0.505497464   0.214323458   0.499005506
  -0.505497464  -0.214323458   0.499005506

ATOMIC_POSITIONS (crystal)
Pb            0.6153446141        0.7500000000        0.8653446141
Pb            0.3846553859        0.2500000000        0.1346553859
Br            0.6017492524        0.0451313335        0.1468805859
Br            0.1920119195        0.4548686665        0.1468805859
Br            0.3982507476        0.9548686665        0.8531194141
Br            0.8079880805        0.5451313335        0.8531194141
Br            0.3904712807        0.7500000000        0.6404712807
Br            0.6095287193        0.2500000000        0.3595287193
Br            0.8134498931        0.7500000000        0.0634498931
Br            0.1865501069        0.2500000000        0.9365501069
C             0.5662368684        0.4590988724        0.5253357408
C             0.9844346131        0.0409011276        0.5253357408
C             0.4337631316        0.5409011276        0.4746642592
C             0.0155653869        0.9590988724        0.4746642592
C             0.7913493422        0.3781320215        0.6694813638
C             0.0476133853        0.1218679785        0.6694813638
C             0.2086506578        0.6218679785        0.3305186362
C             0.9523866147        0.8781320215        0.3305186362
H             0.4130448037        0.4407246983        0.6423309662
H             0.0830556645        0.0592753017        0.3537695020
H             0.5869551963        0.2707138375        0.6462304980
H             0.9169443355        0.2292861625        0.3576690338
H             0.5869551963        0.5592753017        0.3576690338
H             0.9169443355        0.9407246983        0.6462304980
H             0.4130448037        0.7292861625        0.3537695020
H             0.0830556645        0.7707138375        0.6423309662
H             0.8650490754        0.3823255784        0.7473746538
H             0.1297002322        0.1176744216        0.7473746538
H             0.1349509246        0.6176744216        0.2526253462
H             0.8702997678        0.8823255784        0.2526253462
H             0.1819414354        0.8113678043        0.2022391536
H             0.0136069579        0.6886321957        0.4933092397
H             0.8180585646        0.4797022818        0.5066907603
H             0.9863930421        0.0202977182        0.7977608464
H             0.8180585646        0.1886321957        0.7977608464
H             0.9863930421        0.3113678043        0.5066907603
H             0.1819414354        0.5202977182        0.4933092397
H             0.0136069579        0.9797022818        0.2022391536
H             0.3538131562        0.3634432530        0.4918002215
H             0.8552434745        0.1365567470        0.2172564093
H             0.6461868438        0.3620129347        0.7827435907
H             0.1447565255        0.1379870653        0.5081997785
H             0.6461868438        0.6365567470        0.5081997785
H             0.1447565255        0.8634432530        0.7827435907
H             0.3538131562        0.6379870653        0.2172564093
H             0.8552434745        0.8620129347        0.4918002215
N             0.6640928918        0.4597443676        0.6238372594
N             0.0835816270        0.0402556324        0.6238372594
N             0.3359071082        0.5402556324        0.3761627406
N             0.9164183730        0.9597443676        0.3761627406



     Writing config-only to output data dir ./scf.save/
     NEW-OLD atomic charge density approx. for the potential
     extrapolated charge  172.05094, renormalised to  164.00000

     total cpu time spent up to now is       25.0 secs

     Self-consistent Calculation

     iteration #  1     ecut=    60.00 Ry     beta= 0.50
     Davidson diagonalization with overlap

---- Real-time Memory Report at c_bands before calling an iterative solver
           214 MiB given to the printing process from OS
             0 MiB allocation reported by mallinfo(arena+hblkhd)
         47385 MiB available memory on the node where the printing process lives
------------------
     ethr =  1.00E-06,  avg # of iterations = 11.1

     total cpu time spent up to now is       28.8 secs

     total energy              =    -744.72086356 Ry
     estimated scf accuracy    <       1.76300952 Ry

     iteration #  2     ecut=    60.00 Ry     beta= 0.50
     Davidson diagonalization with overlap

---- Real-time Memory Report at c_bands before calling an iterative solver
[...]
     atom   25 type  4   force =     0.00000000    0.00000000    0.00000000
     atom   26 type  4   force =     0.00000000    0.00000000    0.00000000
     atom   27 type  4   force =     0.00000000    0.00000000    0.00000000
     atom   28 type  4   force =     0.00000000    0.00000000    0.00000000
     atom   29 type  4   force =     0.00000000    0.00000000    0.00000000
     atom   30 type  4   force =     0.00000000    0.00000000    0.00000000
     atom   31 type  4   force =     0.00000000    0.00000000    0.00000000
     atom   32 type  4   force =     0.00000000    0.00000000    0.00000000
     atom   33 type  4   force =     0.00000000    0.00000000    0.00000000
     atom   34 type  4   force =     0.00000000    0.00000000    0.00000000
     atom   35 type  4   force =     0.00000000    0.00000000    0.00000000
     atom   36 type  4   force =     0.00000000    0.00000000    0.00000000
     atom   37 type  4   force =     0.00000000    0.00000000    0.00000000
     atom   38 type  4   force =     0.00000000    0.00000000    0.00000000
     atom   39 type  4   force =     0.00000000    0.00000000    0.00000000
     atom   40 type  4   force =     0.00000000    0.00000000    0.00000000
     atom   41 type  4   force =     0.00000000    0.00000000    0.00000000
     atom   42 type  4   force =     0.00000000    0.00000000    0.00000000
     atom   43 type  4   force =     0.00000000    0.00000000    0.00000000
     atom   44 type  4   force =     0.00000000    0.00000000    0.00000000
     atom   45 type  4   force =     0.00000000    0.00000000    0.00000000
     atom   46 type  4   force =     0.00000000    0.00000000    0.00000000
     atom   47 type  5   force =    -0.00705771   -0.00000000    0.00460287
     atom   48 type  5   force =     0.00705771    0.00000000    0.00460287
     atom   49 type  5   force =     0.00705771   -0.00000000   -0.00460287
     atom   50 type  5   force =    -0.00705771    0.00000000   -0.00460287
     The Hubbard contrib.    to forces
     atom    1 type  1   force =     0.00000000    0.00000000    0.00000000
     atom    2 type  1   force =     0.00000000    0.00000000    0.00000000
     atom    3 type  2   force =     0.00000000    0.00000000    0.00000000
     atom    4 type  2   force =     0.00000000    0.00000000    0.00000000
     atom    5 type  2   force =     0.00000000    0.00000000    0.00000000
     atom    6 type  2   force =     0.00000000    0.00000000    0.00000000
     atom    7 type  2   force =     0.00000000    0.00000000    0.00000000
     atom    8 type  2   force =     0.00000000    0.00000000    0.00000000
     atom    9 type  2   force =     0.00000000    0.00000000    0.00000000
     atom   10 type  2   force =     0.00000000    0.00000000    0.00000000
     atom   11 type  3   force =     0.00000000    0.00000000    0.00000000
     atom   12 type  3   force =     0.00000000    0.00000000    0.00000000
     atom   13 type  3   force =     0.00000000    0.00000000    0.00000000
     atom   14 type  3   force =     0.00000000    0.00000000    0.00000000
     atom   15 type  3   force =     0.00000000    0.00000000    0.00000000
     atom   16 type  3   force =     0.00000000    0.00000000    0.00000000
     atom   17 type  3   force =     0.00000000    0.00000000    0.00000000
     atom   18 type  3   force =     0.00000000    0.00000000    0.00000000
     atom   19 type  4   force =     0.00000000    0.00000000    0.00000000
     atom   20 type  4   force =     0.00000000    0.00000000    0.00000000
     atom   21 type  4   force =     0.00000000    0.00000000    0.00000000
     atom   22 type  4   force =     0.00000000    0.00000000    0.00000000
     atom   23 type  4   force =     0.00000000    0.00000000    0.00000000
     atom   24 type  4   force =     0.00000000    0.00000000    0.00000000
     atom   25 type  4   force =     0.00000000    0.00000000    0.00000000
     atom   26 type  4   force =     0.00000000    0.00000000    0.00000000
     atom   27 type  4   force =     0.00000000    0.00000000    0.00000000
     atom   28 type  4   force =     0.00000000    0.00000000    0.00000000
     atom   29 type  4   force =     0.00000000    0.00000000    0.00000000
     atom   30 type  4   force =     0.00000000    0.00000000    0.00000000
     atom   31 type  4   force =     0.00000000    0.00000000    0.00000000
     atom   32 type  4   force =     0.00000000    0.00000000    0.00000000
     atom   33 type  4   force =     0.00000000    0.00000000    0.00000000
     atom   34 type  4   force =     0.00000000    0.00000000    0.00000000
     atom   35 type  4   force =     0.00000000    0.00000000    0.00000000
     atom   36 type  4   force =     0.00000000    0.00000000    0.00000000
     atom   37 type  4   force =     0.00000000    0.00000000    0.00000000
     atom   38 type  4   force =     0.00000000    0.00000000    0.00000000
     atom   39 type  4   force =     0.00000000    0.00000000    0.00000000
     atom   40 type  4   force =     0.00000000    0.00000000    0.00000000
     atom   41 type  4   force =     0.00000000    0.00000000    0.00000000
     atom   42 type  4   force =     0.00000000    0.00000000    0.00000000
     atom   43 type  4   force =     0.00000000    0.00000000    0.00000000
     atom   44 type  4   force =     0.00000000    0.00000000    0.00000000
     atom   45 type  4   force =     0.00000000    0.00000000    0.00000000
     atom   46 type  4   force =     0.00000000    0.00000000    0.00000000
     atom   47 type  5   force =     0.00000000    0.00000000    0.00000000
     atom   48 type  5   force =     0.00000000    0.00000000    0.00000000
     atom   49 type  5   force =     0.00000000    0.00000000    0.00000000
     atom   50 type  5   force =     0.00000000    0.00000000    0.00000000
     The SCF correction term to forces
     atom    1 type  1   force =     0.00000000   -0.00000000   -0.00000003
     atom    2 type  1   force =    -0.00000000    0.00000000    0.00000003
     atom    3 type  2   force =    -0.00000001   -0.00000000   -0.00000000
     atom    4 type  2   force =     0.00000001   -0.00000000   -0.00000000
     atom    5 type  2   force =     0.00000001    0.00000000    0.00000000
     atom    6 type  2   force =    -0.00000001    0.00000000    0.00000000
     atom    7 type  2   force =    -0.00000000   -0.00000000    0.00000000
     atom    8 type  2   force =     0.00000000    0.00000000   -0.00000000
     atom    9 type  2   force =     0.00000000   -0.00000000   -0.00000001
     atom   10 type  2   force =    -0.00000000    0.00000000    0.00000001
     atom   11 type  3   force =     0.00000001    0.00000000   -0.00000000
     atom   12 type  3   force =    -0.00000001   -0.00000000   -0.00000000
     atom   13 type  3   force =    -0.00000001   -0.00000000    0.00000000
     atom   14 type  3   force =     0.00000001    0.00000000    0.00000000
     atom   15 type  3   force =     0.00000000    0.00000000    0.00000001
     atom   16 type  3   force =    -0.00000000   -0.00000000    0.00000001
     atom   17 type  3   force =    -0.00000000   -0.00000000   -0.00000001
     atom   18 type  3   force =     0.00000000    0.00000000   -0.00000001
     atom   19 type  4   force =    -0.00000000   -0.00000000    0.00000000
     atom   20 type  4   force =     0.00000000    0.00000000    0.00000000
     atom   21 type  4   force =     0.00000000   -0.00000000   -0.00000000
     atom   22 type  4   force =    -0.00000000    0.00000000   -0.00000000
     atom   23 type  4   force =     0.00000000    0.00000000   -0.00000000
     atom   24 type  4   force =    -0.00000000   -0.00000000   -0.00000000
     atom   25 type  4   force =    -0.00000000    0.00000000    0.00000000
     atom   26 type  4   force =     0.00000000   -0.00000000    0.00000000
     atom   27 type  4   force =    -0.00000000    0.00000000   -0.00000000
     atom   28 type  4   force =     0.00000000    0.00000000   -0.00000000
     atom   29 type  4   force =     0.00000000   -0.00000000    0.00000000
     atom   30 type  4   force =    -0.00000000   -0.00000000    0.00000000
     atom   31 type  4   force =     0.00000000   -0.00000000   -0.00000000
     atom   32 type  4   force =    -0.00000000    0.00000000   -0.00000000
     atom   33 type  4   force =    -0.00000000   -0.00000000    0.00000000
     atom   34 type  4   force =     0.00000000    0.00000000    0.00000000
     atom   35 type  4   force =    -0.00000000    0.00000000    0.00000000
     atom   36 type  4   force =     0.00000000   -0.00000000    0.00000000
     atom   37 type  4   force =     0.00000000    0.00000000   -0.00000000
     atom   38 type  4   force =    -0.00000000   -0.00000000   -0.00000000
     atom   39 type  4   force =     0.00000000   -0.00000000   -0.00000000
     atom   40 type  4   force =    -0.00000000    0.00000000   -0.00000000
     atom   41 type  4   force =    -0.00000000   -0.00000000    0.00000000
     atom   42 type  4   force =     0.00000000    0.00000000    0.00000000
     atom   43 type  4   force =    -0.00000000    0.00000000    0.00000000
     atom   44 type  4   force =     0.00000000   -0.00000000    0.00000000
     atom   45 type  4   force =     0.00000000    0.00000000   -0.00000000
     atom   46 type  4   force =    -0.00000000   -0.00000000   -0.00000000
     atom   47 type  5   force =    -0.00000001    0.00000000    0.00000001
     atom   48 type  5   force =     0.00000001    0.00000000    0.00000001
     atom   49 type  5   force =     0.00000001   -0.00000000   -0.00000001
     atom   50 type  5   force =    -0.00000001   -0.00000000   -0.00000001

     Total force =     0.000184     Total SCF correction =     0.000000


     Computing stress (Cartesian axis) and pressure

          total   stress  (Ry/bohr**3)                   (kbar)     P=       -0.00
   0.00000031  -0.00000000  -0.00000000            0.05       -0.00       -0.00
  -0.00000000  -0.00000002   0.00000000           -0.00       -0.00        0.00
  -0.00000000   0.00000000  -0.00000032           -0.00        0.00       -0.05

     kinetic stress (kbar)   8218.69     -0.00      0.00
                               -0.00   8192.44     -0.00
                                0.00     -0.00   8193.47

     local   stress (kbar)  -3202.76      0.00      0.00
                                0.00  -2952.75     -0.00
                                0.00     -0.00  -5235.42

     nonloc. stress (kbar)   -361.14      0.00     -0.00
                                0.00   -405.09      0.00
                               -0.00      0.00   -350.38

     hartree stress (kbar)   2232.00      0.00     -0.00
                                0.00   2143.04      0.00
                               -0.00      0.00   3098.08

     exc-cor stress (kbar)   1493.49      0.00     -0.00
                                0.00   1497.99      0.00
                               -0.00      0.00   1493.63

     corecor stress (kbar)  -3470.83     -0.00      0.00
                               -0.00  -3473.20     -0.00
                                0.00     -0.00  -3470.04

     ewald   stress (kbar)  -4909.41     -0.00     -0.00
                               -0.00  -5002.45      0.00
                               -0.00      0.00  -3729.38

     hubbard stress (kbar)      0.00      0.00      0.00
                                0.00      0.00      0.00
                                0.00      0.00      0.00

     DFT-D   stress (kbar)      0.00      0.00      0.00
                                0.00      0.00      0.00
                                0.00      0.00      0.00

     XDM     stress (kbar)      0.00      0.00      0.00
                                0.00      0.00      0.00
                                0.00      0.00      0.00

     dft-nl  stress (kbar)      0.00      0.00      0.00
                                0.00      0.00      0.00
                                0.00      0.00      0.00

     TS-vdW  stress (kbar)      0.00      0.00      0.00
                                0.00      0.00      0.00
                                0.00      0.00      0.00

     MDB     stress (kbar)      0.00      0.00      0.00
                                0.00      0.00      0.00
                                0.00      0.00      0.00

     3D-RISM stress (kbar)      0.00      0.00      0.00
                                0.00      0.00      0.00
                                0.00      0.00      0.00

     Energy error            =      8.4E-08 Ry
     Gradient error          =      4.1E-05 Ry/Bohr
     Cell gradient error     =      4.6E-02 kbar

     number of scf cycles    =  50
     number of bfgs steps    =  49

     enthalpy           old  =    -746.6199095435 Ry
     enthalpy           new  =    -746.6199096273 Ry

     CASE: enthalpy          _new < enthalpy          _old

     new trust radius        =       0.0003450589 bohr

     The maximum number of steps has been reached.

     End of BFGS Geometry Optimization
     new unit-cell volume =   4365.84731 a.u.^3 (   646.95182 Ang^3 )
     density =      3.16718 g/cm^3

CELL_PARAMETERS (alat= 27.63346540)
   0.502826278   0.207004263   0.496941472
  -0.502826278   0.207004263   0.496941472
  -0.502826278  -0.207004263   0.496941472

ATOMIC_POSITIONS (crystal)
Pb            0.6153451003        0.7500000000        0.8653451003
Pb            0.3846548997        0.2500000000        0.1346548997
Br            0.6028772032        0.0449552155        0.1478324187
Br            0.1927876342        0.4550447845        0.1478324187
Br            0.3971227968        0.9550447845        0.8521675813
Br            0.8072123658        0.5449552155        0.8521675813
Br            0.3924848376        0.7500000000        0.6424848376
Br            0.6075151624        0.2500000000        0.3575151624
Br            0.8149213239        0.7500000000        0.0649213239
Br            0.1850786761        0.2500000000        0.9350786761
C             0.5688883441        0.4530951537        0.5219834979
C             0.9750786516        0.0469048463        0.5219834979
C             0.4311116559        0.5469048463        0.4780165021
C             0.0249213484        0.9530951537        0.4780165021
C             0.7987114092        0.3720163105        0.6707277197
C             0.0427440302        0.1279836895        0.6707277197
C             0.2012885908        0.6279836895        0.3292722803
C             0.9572559698        0.8720163105        0.3292722803
H             0.4114865687        0.4379561499        0.6449733827
H             0.0829295326        0.0620438501        0.3494427186
H             0.5885134313        0.2665131860        0.6505572814
H             0.9170704674        0.2334868140        0.3550266173
H             0.5885134313        0.5620438501        0.3550266173
H             0.9170704674        0.9379561499        0.6505572814
H             0.4114865687        0.7334868140        0.3494427186
H             0.0829295326        0.7665131860        0.6449733827
H             0.8618059469        0.3832870370        0.7450929839
H             0.1283800209        0.1167129630        0.7450929839
H             0.1381940531        0.6167129630        0.2549070161
H             0.8716199791        0.8832870370        0.2549070161
H             0.1858237732        0.8133441800        0.2023591306
H             0.0157033106        0.6866558200        0.4991679532
H             0.8141762268        0.4834646426        0.5008320468
H             0.9842966894        0.0165353574        0.7976408694
H             0.8141762268        0.1866558200        0.7976408694
H             0.9842966894        0.3133441800        0.5008320468
H             0.1858237732        0.5165353574        0.4991679532
H             0.0157033106        0.9834646426        0.2023591306
H             0.3544170110        0.3612372204        0.4960551854
H             0.8572924058        0.1387627796        0.2156542314
H             0.6455829890        0.3583618256        0.7843457686
H             0.1427075942        0.1416381744        0.5039448146
H             0.6455829890        0.6387627796        0.5039448146
H             0.1427075942        0.8612372204        0.7843457686
H             0.3544170110        0.6416381744        0.2156542314
H             0.8572924058        0.8583618256        0.4960551854
N             0.6619536364        0.4620550235        0.6240086599
N             0.0860636833        0.0379449765        0.6240086599
N             0.3380463636        0.5379449765        0.3759913401
N             0.9139363167        0.9620550235        0.3759913401



     Writing config-only to output data dir ./scf.save/
     NEW-OLD atomic charge density approx. for the potential
     extrapolated charge  163.99847, renormalised to  164.00000

     Writing all to output data dir ./scf.save/
 
     init_run     :      1.09s CPU      1.24s WALL (       1 calls)
     electrons    :    878.43s CPU    893.86s WALL (      50 calls)
     update_pot   :     28.12s CPU     28.64s WALL (      50 calls)
     forces       :     26.14s CPU     26.54s WALL (      50 calls)
     stress       :    140.35s CPU    141.21s WALL (      50 calls)

     Called by init_run:
     wfcinit      :      0.53s CPU      0.55s WALL (       1 calls)
     wfcinit:atom :      0.01s CPU      0.01s WALL (       4 calls)
     wfcinit:wfcr :      0.49s CPU      0.51s WALL (       4 calls)
     potinit      :      0.18s CPU      0.22s WALL (       1 calls)
     hinit0       :      0.25s CPU      0.33s WALL (       1 calls)

     Called by electrons:
     c_bands      :    770.19s CPU    779.02s WALL (     760 calls)
     sum_band     :     91.83s CPU     93.66s WALL (     760 calls)
     v_of_rho     :     12.38s CPU     13.63s WALL (     771 calls)
     v_h          :      0.78s CPU      0.92s WALL (     771 calls)
     v_xc         :     13.19s CPU     14.43s WALL (     871 calls)
     mix_rho      :      2.50s CPU      2.66s WALL (     760 calls)

     Called by c_bands:
     init_us_2    :     22.79s CPU     23.18s WALL (    6484 calls)
     init_us_2:cp :     22.76s CPU     23.16s WALL (    6484 calls)
     cegterg      :    678.91s CPU    686.67s WALL (    3040 calls)

     Called by sum_band:
     sum_band:wei :      0.01s CPU      0.01s WALL (     760 calls)
     sum_band:loo :     88.60s CPU     89.85s WALL (     760 calls)
     sum_band:buf :      2.04s CPU      2.27s WALL (    3040 calls)
     sum_band:ini :     10.74s CPU     10.87s WALL (    3040 calls)

     Called by *egterg:
     cdiaghg      :     76.25s CPU     76.63s WALL (   10783 calls)
     cegterg:over :     40.45s CPU     41.23s WALL (    8099 calls)
     cegterg:upda :     18.79s CPU     18.94s WALL (    8099 calls)
     cegterg:last :     22.89s CPU     23.05s WALL (    6080 calls)
     h_psi        :    502.58s CPU    508.64s WALL (   11143 calls)
     g_psi        :      1.50s CPU      1.52s WALL (    8099 calls)

     Called by h_psi:
     h_psi:calbec :     63.07s CPU     64.43s WALL (   11143 calls)
     vloc_psi     :    377.14s CPU    381.45s WALL (   11143 calls)
     add_vuspsi   :     58.69s CPU     59.04s WALL (   11143 calls)

     General routines
     calbec       :     74.36s CPU     75.98s WALL (   12143 calls)
     fft          :      6.46s CPU      7.80s WALL (    9001 calls)
     ffts         :      0.51s CPU      0.61s WALL (     760 calls)
     fftw         :    398.38s CPU    402.94s WALL ( 1560600 calls)
     davcio       :      0.00s CPU      0.00s WALL (       4 calls)
 
     Parallel routines
 
     PWSCF        :  17m57.17s CPU  18m20.14s WALL

 
   This run was terminated on:  22:23: 7  16Apr2023            

=------------------------------------------------------------------------------=
   JOB DONE.
=------------------------------------------------------------------------------=
