
     Program PWSCF v.7.1 starts on 30Aug2023 at 16: 4:46 

     This program is part of the open-source Quantum ESPRESSO suite
     for quantum simulation of materials; please cite
         "P. Giannozzi et al., J. Phys.:Condens. Matter 21 395502 (2009);
         "P. Giannozzi et al., J. Phys.:Condens. Matter 29 465901 (2017);
         "P. Giannozzi et al., J. Chem. Phys. 152 154105 (2020);
          URL http://www.quantum-espresso.org", 
     in publications or presentations arising from this work. More details at
     http://www.quantum-espresso.org/quote

     Parallel version (MPI), running on   168 processors

     MPI processes distributed on     3 nodes
     81138 MiB available memory on the printing compute node when the environment starts
 
     Waiting for input...
     Reading input from standard input
Warning: card &IONS ignored
Warning: card / ignored
Warning: card &CELL ignored
Warning: card PRESS_CONV_THR = 0.001 ignored
Warning: card / ignored

     Current dimensions of program PWSCF are:
     Max number of different atomic species (ntypx) = 10
     Max number of k-points (npk) =  40000
     Max angular momentum in pseudopotentials (lmaxx) =  4

     Atomic positions and unit cell read from directory:
     ./scf1.save/
     Atomic positions from file used, from input discarded
 
     Message from routine setup:
     using ibrav=0 with symmetry is DISCOURAGED, use correct ibrav instead
 
     K-points division:     npool     =       4
     R & G space division:  proc/nbgrp/npool/nimage =      42
     Subspace diagonalization in iterative solution of the eigenvalue problem:
     a serial algorithm will be used

 
     Parallelization info
     --------------------
     sticks:   dense  smooth     PW     G-vecs:    dense   smooth      PW
     Min         189     189     55                 6555     6555    1039
     Max         190     190     56                 6556     6556    1042
     Sum        7949    7949   2331               275321   275321   43683
 
     Using Slab Decomposition
 


     bravais-lattice index     =            0
     lattice parameter (alat)  =      20.4147  a.u.
     unit-cell volume          =    4384.1849 (a.u.)^3
     number of atoms/cell      =           50
     number of atomic types    =            5
     number of electrons       =       164.00
     number of Kohn-Sham states=           94
     kinetic-energy cutoff     =      60.0000  Ry
     charge density cutoff     =     240.0000  Ry
     Exchange-correlation= PBE
                           (   1   4   3   4   0   0   0)

     celldm(1)=  20.414728  celldm(2)=   0.000000  celldm(3)=   0.000000
     celldm(4)=   0.000000  celldm(5)=   0.000000  celldm(6)=   0.000000

     crystal axes: (cart. coord. in units of alat)
               a(1) = (   0.675983   0.681859   0.279491 )  
               a(2) = (   0.675983  -0.681859   0.279491 )  
               a(3) = (   0.675983  -0.681859  -0.279491 )  

     reciprocal axes: (cart. coord. in units 2 pi/alat)
               b(1) = (  0.739663  0.733289  0.000000 )  
               b(2) = (  0.000000 -0.733289  1.788967 )  
               b(3) = (  0.739663 -0.000000 -1.788967 )  


     PseudoPot. # 1 for Pb read from file:
     /home/rkarkee/merced_home_backup/rkarkee/pseudo/Pb.upf
     MD5 check sum: 465799cf2c9ea2062203eb79f5a7a375
     Pseudo is Norm-conserving + core correction, Zval = 14.0
     Generated using ONCVPSP code by D. R. Hamann
     Using radial grid of 1678 points,  6 beta functions with: 
                l(1) =   0
                l(2) =   0
                l(3) =   1
                l(4) =   1
                l(5) =   2
                l(6) =   2

     PseudoPot. # 2 for Br read from file:
     /home/rkarkee/merced_home_backup/rkarkee/pseudo/Br.upf
     MD5 check sum: 68275ccec8d7d9019ef58dac33cdd12b
     Pseudo is Norm-conserving + core correction, Zval =  7.0
     Generated using ONCVPSP code by D. R. Hamann
     Using radial grid of 1098 points,  6 beta functions with: 
                l(1) =   0
                l(2) =   0
                l(3) =   1
                l(4) =   1
                l(5) =   2
                l(6) =   2

     PseudoPot. # 3 for C  read from file:
     /home/rkarkee/merced_home_backup/rkarkee/pseudo/C.upf
     MD5 check sum: 34a24e64c0a39f27c6c36b90a16ac686
     Pseudo is Norm-conserving + core correction, Zval =  4.0
     Generated using ONCVPSP code by D. R. Hamann
     Using radial grid of 1248 points,  4 beta functions with: 
                l(1) =   0
                l(2) =   0
                l(3) =   1
                l(4) =   1

     PseudoPot. # 4 for H  read from file:
     /home/rkarkee/merced_home_backup/rkarkee/pseudo/H.upf
     MD5 check sum: e96aa7e3e4a958db16958554ea960e2a
     Pseudo is Norm-conserving, Zval =  1.0
     Generated using ONCVPSP code by D. R. Hamann
     Using radial grid of 1166 points,  3 beta functions with: 
                l(1) =   0
                l(2) =   0
                l(3) =   1

     PseudoPot. # 5 for N  read from file:
     /home/rkarkee/merced_home_backup/rkarkee/pseudo/N.upf
     MD5 check sum: d34365f73bb0e2ee98afc20ec3e87676
     Pseudo is Norm-conserving + core correction, Zval =  5.0
     Generated using ONCVPSP code by D. R. Hamann
     Using radial grid of 1058 points,  4 beta functions with: 
                l(1) =   0
                l(2) =   0
                l(3) =   1
                l(4) =   1

     atomic species   valence    mass     pseudopotential
        Pb            14.00   207.20000     Pb( 1.00)
        Br             7.00    79.90000     Br( 1.00)
        C              4.00    12.01000     C ( 1.00)
        H              1.00     1.00800     H ( 1.00)
        N              5.00    14.01000     N ( 1.00)

      8 Sym. Ops., with inversion, found ( 4 have fractional translation)


                                    s                        frac. trans.

      isym =  1     identity                                     

 cryst.   s( 1) = (     1          0          0      )
                  (     0          1          0      )
                  (     0          0          1      )

 cart.    s( 1) = (  1.0000000  0.0000000  0.0000000 )
                  (  0.0000000  1.0000000 -0.0000000 )
                  (  0.0000000 -0.0000000  1.0000000 )


      isym =  2     180 deg rotation - cart. axis [0,0,1]        

 cryst.   s( 2) = (    -1          1         -1      )    f =(  0.0000000 )
                  (     0          0         -1      )       ( -0.5000000 )
                  (     0         -1          0      )       ( -0.5000000 )

 cart.    s( 2) = ( -1.0000000  0.0000000 -0.0000001 )    f =( -0.6759831 )
                  ( -0.0000000 -1.0000000 -0.0000002 )       (  0.6818590 )
                  (  0.0000001 -0.0000000  1.0000000 )       (  0.0000000 )


      isym =  3     180 deg rotation - cart. axis [0,1,0]        

 cryst.   s( 3) = (     0         -1          0      )
                  (    -1          0          0      )
                  (    -1          1         -1      )

 cart.    s( 3) = ( -1.0000000  0.0000000  0.0000000 )
                  ( -0.0000001  1.0000000  0.0000002 )
                  ( -0.0000000  0.0000000 -1.0000000 )


      isym =  4     180 deg rotation - cart. axis [1,0,0]        

 cryst.   s( 4) = (     0          0          1      )    f =( -0.0000000 )
                  (     1         -1          1      )       ( -0.5000000 )
                  (     1          0          0      )       (  0.5000000 )

 cart.    s( 4) = (  1.0000000 -0.0000000  0.0000001 )    f =(  0.0000000 )
                  (  0.0000001 -1.0000000  0.0000000 )       (  0.0000000 )
                  ( -0.0000001  0.0000000 -1.0000000 )       ( -0.2794909 )


      isym =  5     inversion                                    

 cryst.   s( 5) = (    -1          0          0      )
                  (     0         -1          0      )
                  (     0          0         -1      )

 cart.    s( 5) = ( -1.0000000 -0.0000000 -0.0000000 )
                  ( -0.0000000 -1.0000000  0.0000000 )
                  ( -0.0000000  0.0000000 -1.0000000 )


      isym =  6     inv. 180 deg rotation - cart. axis [0,0,1]   

 cryst.   s( 6) = (     1         -1          1      )    f =(  0.0000000 )
                  (     0          0          1      )       ( -0.5000000 )
                  (     0          1          0      )       (  0.5000000 )

 cart.    s( 6) = (  1.0000000 -0.0000000  0.0000001 )    f =(  0.0000000 )
                  (  0.0000000  1.0000000  0.0000002 )       (  0.0000000 )
                  ( -0.0000001  0.0000000 -1.0000000 )       ( -0.2794909 )


      isym =  7     inv. 180 deg rotation - cart. axis [0,1,0]   

 cryst.   s( 7) = (     0          1          0      )
                  (     1          0          0      )
                  (     1         -1          1      )

 cart.    s( 7) = (  1.0000000 -0.0000000 -0.0000000 )
                  (  0.0000001 -1.0000000 -0.0000002 )
                  (  0.0000000 -0.0000000  1.0000000 )


      isym =  8     inv. 180 deg rotation - cart. axis [1,0,0]   

 cryst.   s( 8) = (     0          0         -1      )    f =(  0.0000000 )
                  (    -1          1         -1      )       ( -0.5000000 )
                  (    -1          0          0      )       ( -0.5000000 )

 cart.    s( 8) = ( -1.0000000  0.0000000 -0.0000001 )    f =( -0.6759831 )
                  ( -0.0000001  1.0000000 -0.0000000 )       (  0.6818590 )
                  (  0.0000001 -0.0000000  1.0000000 )       (  0.0000000 )


   Cartesian axes

     site n.     atom                  positions (alat units)
         1           Pb  tau(   1) = (   1.5075418  -0.6818590   0.1397454  )
         2           Pb  tau(   2) = (   0.5204074   0.0000000   0.1397454  )
         3           Br  tau(   3) = (   0.5385907   0.2793391   0.1397454  )
         4           Br  tau(   4) = (   0.5385907  -0.2793391   0.1397454  )
         5           Br  tau(   5) = (   1.4893586  -0.9611980   0.1397454  )
         6           Br  tau(   6) = (   1.4893586  -0.4025199   0.1397454  )
         7           Br  tau(   7) = (   1.2072256  -0.6818590   0.1397454  )
         8           Br  tau(   8) = (   0.8207237   0.0000000   0.1397454  )
         9           Br  tau(   9) = (   1.1001315   0.0000000   0.4192362  )
        10           Br  tau(  10) = (   0.9278178  -0.6818590  -0.1397455  )
        11           C   tau(  11) = (   1.0435272  -0.2770472   0.1397454  )
        12           C   tau(  12) = (   1.0435272   0.2770473   0.1397454  )
        13           C   tau(  13) = (   0.9844221  -0.4048118   0.1397454  )
        14           C   tau(  14) = (   0.9844220  -0.9589062   0.1397454  )
        15           C   tau(  15) = (   1.2437548  -0.1666552   0.1397454  )
        16           C   tau(  16) = (   0.5677717  -0.5152038  -0.1397455  )
        17           C   tau(  17) = (   0.7841945  -0.5152038   0.1397454  )
        18           C   tau(  18) = (   1.4601776  -0.1666552   0.4192362  )
        19           H   tau(  19) = (   1.0102673  -0.4576497   0.0569380  )
        20           H   tau(  20) = (   0.3342842  -0.2242093  -0.0569381  )
        21           H   tau(  21) = (   1.0176820  -0.2242093   0.0569380  )
        22           H   tau(  22) = (   1.0176820   0.2242093   0.2225527  )
        23           H   tau(  23) = (   1.0176819  -0.2242093   0.2225527  )
        24           H   tau(  24) = (   1.6936651  -0.4576497   0.3364289  )
        25           H   tau(  25) = (   1.0102673  -0.4576497   0.2225527  )
        26           H   tau(  26) = (   1.0102673  -0.9060683   0.0569380  )
        27           H   tau(  27) = (   1.3437843  -0.1821188   0.1397454  )
        28           H   tau(  28) = (   0.6678012  -0.4997402  -0.1397455  )
        29           H   tau(  29) = (   0.6841650  -0.4997402   0.1397454  )
        30           H   tau(  30) = (   1.3601482  -0.1821188   0.4192362  )
        31           H   tau(  31) = (   0.8130520  -0.5655596   0.2229066  )
        32           H   tau(  32) = (   0.8130520  -0.7981584   0.0565842  )
        33           H   tau(  33) = (   1.2148973  -0.1162994   0.2229066  )
        34           H   tau(  34) = (   1.2148973   0.1162994   0.0565842  )
        35           H   tau(  35) = (   1.2148973  -0.1162993   0.0565842  )
        36           H   tau(  36) = (   1.2148973   0.1162994   0.2229066  )
        37           H   tau(  37) = (   0.8130520  -0.5655596   0.0565842  )
        38           H   tau(  38) = (   0.8130520  -0.7981584   0.2229066  )
        39           H   tau(  39) = (   0.8200186  -0.3429687   0.0611483  )
        40           H   tau(  40) = (   0.8200186   0.3429687   0.2183425  )
        41           H   tau(  41) = (   1.2079308  -0.3388903   0.0611483  )
        42           H   tau(  42) = (   0.5319476  -0.3429687  -0.0611483  )
        43           H   tau(  43) = (   1.2079307  -0.3388903   0.2183425  )
        44           H   tau(  44) = (   1.2079307  -1.0248277   0.0611483  )
        45           H   tau(  45) = (   0.8200186  -0.3429687   0.2183425  )
        46           H   tau(  46) = (   1.4960016  -0.3388903   0.3406391  )
        47           N   tau(  47) = (   1.1808313  -0.2891989   0.1397454  )
        48           N   tau(  48) = (   0.5048482  -0.3926600  -0.1397454  )
        49           N   tau(  49) = (   0.8471180  -0.3926601   0.1397454  )
        50           N   tau(  50) = (   1.5231010  -0.2891989   0.4192362  )

   Crystallographic axes

     site n.     atom                  positions (cryst. coord.)
         1           Pb  tau(   1) = (  0.6150736  0.7500000  0.8650736  )
         2           Pb  tau(   2) = (  0.3849264  0.2500000  0.1349264  )
         3           Br  tau(   3) = (  0.6032122  0.0451636  0.1483758  )
         4           Br  tau(   4) = (  0.1935395  0.4548364  0.1483758  )
         5           Br  tau(   5) = (  0.3967878  0.9548364  0.8516241  )
         6           Br  tau(   6) = (  0.8064606  0.5451636  0.8516241  )
         7           Br  tau(   7) = (  0.3929407  0.7500000  0.6429407  )
         8           Br  tau(   8) = (  0.6070593  0.2500000  0.3570593  )
         9           Br  tau(   9) = (  0.8137271  0.7500000  0.0637271  )
        10           Br  tau(  10) = (  0.1862729  0.2500000  0.9362729  )
        11           C   tau(  11) = (  0.5687032  0.4531558  0.5218590  )
        12           C   tau(  12) = (  0.9750148  0.0468442  0.5218590  )
        13           C   tau(  13) = (  0.4312968  0.5468442  0.4781410  )
        14           C   tau(  14) = (  0.0249852  0.9531558  0.4781410  )
        15           C   tau(  15) = (  0.7977535  0.3722065  0.6699600  )
        16           C   tau(  16) = (  0.0421664  0.1277935  0.6699600  )
        17           C   tau(  17) = (  0.2022466  0.6277935  0.3300400  )
        18           C   tau(  18) = (  0.9578336  0.8722065  0.3300400  )
        19           H   tau(  19) = (  0.4116681  0.4374501  0.6453975  )
        20           H   tau(  20) = (  0.0828475  0.0625499  0.3491182  )
        21           H   tau(  21) = (  0.5883318  0.2662707  0.6508818  )
        22           H   tau(  22) = (  0.9171525  0.2337293  0.3546025  )
        23           H   tau(  23) = (  0.5883318  0.5625499  0.3546025  )
        24           H   tau(  24) = (  0.9171525  0.9374501  0.6508818  )
        25           H   tau(  25) = (  0.4116681  0.7337293  0.3491182  )
        26           H   tau(  26) = (  0.0828475  0.7662707  0.6453975  )
        27           H   tau(  27) = (  0.8604024  0.3835458  0.7439481  )
        28           H   tau(  28) = (  0.1274939  0.1164542  0.7439481  )
        29           H   tau(  29) = (  0.1395977  0.6164542  0.2560519  )
        30           H   tau(  30) = (  0.8725061  0.8835458  0.2560519  )
        31           H   tau(  31) = (  0.1866660  0.8134915  0.2026122  )
        32           H   tau(  32) = (  0.0161037  0.6865084  0.5001575  )
        33           H   tau(  33) = (  0.8133340  0.4840538  0.4998425  )
        34           H   tau(  34) = (  0.9838962  0.0159462  0.7973878  )
        35           H   tau(  35) = (  0.8133340  0.1865085  0.7973878  )
        36           H   tau(  36) = (  0.9838962  0.3134915  0.4998425  )
        37           H   tau(  37) = (  0.1866660  0.5159462  0.5001575  )
        38           H   tau(  38) = (  0.0161037  0.9840538  0.2026122  )
        39           H   tau(  39) = (  0.3550424  0.3608877  0.4971454  )
        40           H   tau(  40) = (  0.8580331  0.1391123  0.2159301  )
        41           H   tau(  41) = (  0.6449576  0.3578970  0.7840699  )
        42           H   tau(  42) = (  0.1419669  0.1421030  0.5028546  )
        43           H   tau(  43) = (  0.6449576  0.6391124  0.5028546  )
        44           H   tau(  44) = (  0.1419669  0.8608876  0.7840699  )
        45           H   tau(  45) = (  0.3550424  0.6421030  0.2159301  )
        46           H   tau(  46) = (  0.8580331  0.8578970  0.4971454  )
        47           N   tau(  47) = (  0.6613513  0.4620665  0.6234178  )
        48           N   tau(  48) = (  0.0854843  0.0379335  0.6234178  )
        49           N   tau(  49) = (  0.3386487  0.5379335  0.3765822  )
        50           N   tau(  50) = (  0.9145157  0.9620665  0.3765822  )

     number of k points=   216  Gaussian smearing, width (Ry)=  0.0001
                       cart. coord. in units 2pi/alat
        k(    1) = (   0.0961562   0.0122215   0.0178897), wk =   0.0092593
        k(    2) = (   0.2194335   0.0122215  -0.2802715), wk =   0.0092593
        k(    3) = (   0.3427107   0.0122215  -0.5784327), wk =   0.0092593
        k(    4) = (   0.4659879   0.0122215  -0.8765939), wk =   0.0092593
        k(    5) = (   0.5892652   0.0122215  -1.1747551), wk =   0.0092593
        k(    6) = (   0.7125424   0.0122215  -1.4729163), wk =   0.0092593
        k(    7) = (   0.0961563  -0.1099934   0.3160509), wk =   0.0092593
        k(    8) = (   0.2194335  -0.1099934   0.0178897), wk =   0.0092593
        k(    9) = (   0.3427107  -0.1099934  -0.2802715), wk =   0.0092593
        k(   10) = (   0.4659880  -0.1099934  -0.5784327), wk =   0.0092593
        k(   11) = (   0.5892652  -0.1099934  -0.8765939), wk =   0.0092593
        k(   12) = (   0.7125424  -0.1099934  -1.1747551), wk =   0.0092593
        k(   13) = (   0.0961563  -0.2322083   0.6142121), wk =   0.0092593
        k(   14) = (   0.2194335  -0.2322083   0.3160509), wk =   0.0092593
        k(   15) = (   0.3427107  -0.2322083   0.0178897), wk =   0.0092593
        k(   16) = (   0.4659880  -0.2322083  -0.2802715), wk =   0.0092593
        k(   17) = (   0.5892652  -0.2322083  -0.5784327), wk =   0.0092593
        k(   18) = (   0.7125424  -0.2322083  -0.8765939), wk =   0.0092593
        k(   19) = (   0.0961563  -0.3544232   0.9123733), wk =   0.0092593
        k(   20) = (   0.2194335  -0.3544232   0.6142121), wk =   0.0092593
        k(   21) = (   0.3427108  -0.3544232   0.3160509), wk =   0.0092593
        k(   22) = (   0.4659880  -0.3544232   0.0178897), wk =   0.0092593
        k(   23) = (   0.5892652  -0.3544232  -0.2802715), wk =   0.0092593
        k(   24) = (   0.7125425  -0.3544232  -0.5784327), wk =   0.0092593
        k(   25) = (   0.0961563  -0.4766381   1.2105345), wk =   0.0092593
        k(   26) = (   0.2194335  -0.4766381   0.9123733), wk =   0.0092593
        k(   27) = (   0.3427108  -0.4766381   0.6142121), wk =   0.0092593
        k(   28) = (   0.4659880  -0.4766381   0.3160509), wk =   0.0092593
        k(   29) = (   0.5892652  -0.4766381   0.0178897), wk =   0.0092593
        k(   30) = (   0.7125425  -0.4766381  -0.2802715), wk =   0.0092593
        k(   31) = (   0.0961563  -0.5988530   1.5086957), wk =   0.0092593
        k(   32) = (   0.2194336  -0.5988530   1.2105345), wk =   0.0092593
        k(   33) = (   0.3427108  -0.5988530   0.9123733), wk =   0.0092593
        k(   34) = (   0.4659880  -0.5988530   0.6142121), wk =   0.0092593
        k(   35) = (   0.5892653  -0.5988530   0.3160509), wk =   0.0092593
        k(   36) = (   0.7125425  -0.5988530   0.0178897), wk =   0.0092593
        k(   37) = (   0.2194335   0.1344364   0.0178897), wk =   0.0092593
        k(   38) = (   0.3427107   0.1344364  -0.2802715), wk =   0.0092593
        k(   39) = (   0.4659879   0.1344364  -0.5784327), wk =   0.0092593
        k(   40) = (   0.5892652   0.1344364  -0.8765939), wk =   0.0092593
        k(   41) = (   0.7125424   0.1344364  -1.1747551), wk =   0.0092593
        k(   42) = (   0.8358196   0.1344364  -1.4729163), wk =   0.0092593
        k(   43) = (   0.2194335   0.0122215   0.3160509), wk =   0.0092593
        k(   44) = (   0.3427107   0.0122215   0.0178897), wk =   0.0092593
        k(   45) = (   0.4659880   0.0122215  -0.2802715), wk =   0.0092593
        k(   46) = (   0.5892652   0.0122215  -0.5784327), wk =   0.0092593
        k(   47) = (   0.7125424   0.0122215  -0.8765939), wk =   0.0092593
        k(   48) = (   0.8358197   0.0122215  -1.1747551), wk =   0.0092593
        k(   49) = (   0.2194335  -0.1099934   0.6142121), wk =   0.0092593
        k(   50) = (   0.3427108  -0.1099934   0.3160509), wk =   0.0092593
        k(   51) = (   0.4659880  -0.1099934   0.0178897), wk =   0.0092593
        k(   52) = (   0.5892652  -0.1099934  -0.2802715), wk =   0.0092593
        k(   53) = (   0.7125424  -0.1099934  -0.5784327), wk =   0.0092593
        k(   54) = (   0.8358197  -0.1099934  -0.8765939), wk =   0.0092593
        k(   55) = (   0.2194335  -0.2322083   0.9123733), wk =   0.0092593
        k(   56) = (   0.3427108  -0.2322083   0.6142121), wk =   0.0092593
        k(   57) = (   0.4659880  -0.2322083   0.3160509), wk =   0.0092593
        k(   58) = (   0.5892652  -0.2322083   0.0178897), wk =   0.0092593
        k(   59) = (   0.7125425  -0.2322083  -0.2802715), wk =   0.0092593
        k(   60) = (   0.8358197  -0.2322083  -0.5784327), wk =   0.0092593
        k(   61) = (   0.2194336  -0.3544232   1.2105345), wk =   0.0092593
        k(   62) = (   0.3427108  -0.3544232   0.9123733), wk =   0.0092593
        k(   63) = (   0.4659880  -0.3544232   0.6142121), wk =   0.0092593
        k(   64) = (   0.5892652  -0.3544232   0.3160509), wk =   0.0092593
        k(   65) = (   0.7125425  -0.3544232   0.0178897), wk =   0.0092593
        k(   66) = (   0.8358197  -0.3544232  -0.2802715), wk =   0.0092593
        k(   67) = (   0.2194336  -0.4766381   1.5086957), wk =   0.0092593
        k(   68) = (   0.3427108  -0.4766381   1.2105345), wk =   0.0092593
        k(   69) = (   0.4659880  -0.4766381   0.9123733), wk =   0.0092593
        k(   70) = (   0.5892653  -0.4766381   0.6142121), wk =   0.0092593
        k(   71) = (   0.7125425  -0.4766381   0.3160509), wk =   0.0092593
        k(   72) = (   0.8358197  -0.4766381   0.0178897), wk =   0.0092593
        k(   73) = (   0.3427107   0.2566513   0.0178897), wk =   0.0092593
        k(   74) = (   0.4659880   0.2566513  -0.2802715), wk =   0.0092593
        k(   75) = (   0.5892652   0.2566513  -0.5784327), wk =   0.0092593
        k(   76) = (   0.7125424   0.2566513  -0.8765939), wk =   0.0092593
        k(   77) = (   0.8358196   0.2566513  -1.1747551), wk =   0.0092593
        k(   78) = (   0.9590969   0.2566513  -1.4729163), wk =   0.0092593
        k(   79) = (   0.3427107   0.1344364   0.3160509), wk =   0.0092593
        k(   80) = (   0.4659880   0.1344364   0.0178897), wk =   0.0092593
        k(   81) = (   0.5892652   0.1344364  -0.2802715), wk =   0.0092593
        k(   82) = (   0.7125424   0.1344364  -0.5784327), wk =   0.0092593
        k(   83) = (   0.8358197   0.1344364  -0.8765939), wk =   0.0092593
        k(   84) = (   0.9590969   0.1344364  -1.1747551), wk =   0.0092593
        k(   85) = (   0.3427108   0.0122215   0.6142121), wk =   0.0092593
        k(   86) = (   0.4659880   0.0122215   0.3160509), wk =   0.0092593
        k(   87) = (   0.5892652   0.0122215   0.0178897), wk =   0.0092593
        k(   88) = (   0.7125425   0.0122215  -0.2802715), wk =   0.0092593
        k(   89) = (   0.8358197   0.0122215  -0.5784327), wk =   0.0092593
        k(   90) = (   0.9590969   0.0122215  -0.8765939), wk =   0.0092593
        k(   91) = (   0.3427108  -0.1099934   0.9123733), wk =   0.0092593
        k(   92) = (   0.4659880  -0.1099934   0.6142121), wk =   0.0092593
        k(   93) = (   0.5892652  -0.1099934   0.3160509), wk =   0.0092593
        k(   94) = (   0.7125425  -0.1099934   0.0178897), wk =   0.0092593
        k(   95) = (   0.8358197  -0.1099934  -0.2802715), wk =   0.0092593
        k(   96) = (   0.9590969  -0.1099934  -0.5784327), wk =   0.0092593
        k(   97) = (   0.3427108  -0.2322083   1.2105345), wk =   0.0092593
        k(   98) = (   0.4659880  -0.2322083   0.9123733), wk =   0.0092593
        k(   99) = (   0.5892653  -0.2322083   0.6142121), wk =   0.0092593
        k(  100) = (   0.7125425  -0.2322083   0.3160509), wk =   0.0092593
        k(  101) = (   0.8358197  -0.2322083   0.0178897), wk =   0.0092593
        k(  102) = (   0.9590969  -0.2322083  -0.2802715), wk =   0.0092593
        k(  103) = (   0.3427108  -0.3544232   1.5086957), wk =   0.0092593
        k(  104) = (   0.4659880  -0.3544232   1.2105345), wk =   0.0092593
        k(  105) = (   0.5892653  -0.3544232   0.9123733), wk =   0.0092593
        k(  106) = (   0.7125425  -0.3544232   0.6142121), wk =   0.0092593
        k(  107) = (   0.8358197  -0.3544232   0.3160509), wk =   0.0092593
        k(  108) = (   0.9590970  -0.3544232   0.0178897), wk =   0.0092593
        k(  109) = (   0.4659880   0.3788662   0.0178897), wk =   0.0092593
        k(  110) = (   0.5892652   0.3788662  -0.2802715), wk =   0.0092593
        k(  111) = (   0.7125424   0.3788662  -0.5784327), wk =   0.0092593
        k(  112) = (   0.8358197   0.3788662  -0.8765939), wk =   0.0092593
        k(  113) = (   0.9590969   0.3788662  -1.1747551), wk =   0.0092593
        k(  114) = (   1.0823741   0.3788662  -1.4729163), wk =   0.0092593
        k(  115) = (   0.4659880   0.2566513   0.3160509), wk =   0.0092593
        k(  116) = (   0.5892652   0.2566513   0.0178897), wk =   0.0092593
        k(  117) = (   0.7125424   0.2566513  -0.2802715), wk =   0.0092593
        k(  118) = (   0.8358197   0.2566513  -0.5784327), wk =   0.0092593
        k(  119) = (   0.9590969   0.2566513  -0.8765939), wk =   0.0092593
        k(  120) = (   1.0823741   0.2566513  -1.1747551), wk =   0.0092593
        k(  121) = (   0.4659880   0.1344364   0.6142121), wk =   0.0092593
        k(  122) = (   0.5892652   0.1344364   0.3160509), wk =   0.0092593
        k(  123) = (   0.7125425   0.1344364   0.0178897), wk =   0.0092593
        k(  124) = (   0.8358197   0.1344364  -0.2802715), wk =   0.0092593
        k(  125) = (   0.9590969   0.1344364  -0.5784327), wk =   0.0092593
        k(  126) = (   1.0823741   0.1344364  -0.8765939), wk =   0.0092593
        k(  127) = (   0.4659880   0.0122215   0.9123733), wk =   0.0092593
        k(  128) = (   0.5892652   0.0122215   0.6142121), wk =   0.0092593
        k(  129) = (   0.7125425   0.0122215   0.3160509), wk =   0.0092593
        k(  130) = (   0.8358197   0.0122215   0.0178897), wk =   0.0092593
        k(  131) = (   0.9590969   0.0122215  -0.2802715), wk =   0.0092593
        k(  132) = (   1.0823742   0.0122215  -0.5784327), wk =   0.0092593
        k(  133) = (   0.4659880  -0.1099934   1.2105345), wk =   0.0092593
        k(  134) = (   0.5892653  -0.1099934   0.9123733), wk =   0.0092593
        k(  135) = (   0.7125425  -0.1099934   0.6142121), wk =   0.0092593
        k(  136) = (   0.8358197  -0.1099934   0.3160509), wk =   0.0092593
        k(  137) = (   0.9590970  -0.1099934   0.0178897), wk =   0.0092593
        k(  138) = (   1.0823742  -0.1099934  -0.2802715), wk =   0.0092593
        k(  139) = (   0.4659881  -0.2322083   1.5086957), wk =   0.0092593
        k(  140) = (   0.5892653  -0.2322083   1.2105345), wk =   0.0092593
        k(  141) = (   0.7125425  -0.2322083   0.9123733), wk =   0.0092593
        k(  142) = (   0.8358197  -0.2322083   0.6142121), wk =   0.0092593
        k(  143) = (   0.9590970  -0.2322083   0.3160509), wk =   0.0092593
        k(  144) = (   1.0823742  -0.2322083   0.0178897), wk =   0.0092593
        k(  145) = (   0.5892652   0.5010811   0.0178898), wk =   0.0092593
        k(  146) = (   0.7125424   0.5010811  -0.2802714), wk =   0.0092593
        k(  147) = (   0.8358197   0.5010811  -0.5784326), wk =   0.0092593
        k(  148) = (   0.9590969   0.5010811  -0.8765938), wk =   0.0092593
        k(  149) = (   1.0823741   0.5010811  -1.1747550), wk =   0.0092593
        k(  150) = (   1.2056514   0.5010811  -1.4729163), wk =   0.0092593
        k(  151) = (   0.5892652   0.3788662   0.3160510), wk =   0.0092593
        k(  152) = (   0.7125425   0.3788662   0.0178898), wk =   0.0092593
        k(  153) = (   0.8358197   0.3788662  -0.2802714), wk =   0.0092593
        k(  154) = (   0.9590969   0.3788662  -0.5784326), wk =   0.0092593
        k(  155) = (   1.0823741   0.3788662  -0.8765938), wk =   0.0092593
        k(  156) = (   1.2056514   0.3788662  -1.1747551), wk =   0.0092593
        k(  157) = (   0.5892652   0.2566513   0.6142122), wk =   0.0092593
        k(  158) = (   0.7125425   0.2566513   0.3160510), wk =   0.0092593
        k(  159) = (   0.8358197   0.2566513   0.0178898), wk =   0.0092593
        k(  160) = (   0.9590969   0.2566513  -0.2802714), wk =   0.0092593
        k(  161) = (   1.0823742   0.2566513  -0.5784326), wk =   0.0092593
        k(  162) = (   1.2056514   0.2566513  -0.8765939), wk =   0.0092593
        k(  163) = (   0.5892653   0.1344364   0.9123734), wk =   0.0092593
        k(  164) = (   0.7125425   0.1344364   0.6142122), wk =   0.0092593
        k(  165) = (   0.8358197   0.1344364   0.3160510), wk =   0.0092593
        k(  166) = (   0.9590969   0.1344364   0.0178898), wk =   0.0092593
        k(  167) = (   1.0823742   0.1344364  -0.2802714), wk =   0.0092593
        k(  168) = (   1.2056514   0.1344364  -0.5784327), wk =   0.0092593
        k(  169) = (   0.5892653   0.0122215   1.2105346), wk =   0.0092593
        k(  170) = (   0.7125425   0.0122215   0.9123734), wk =   0.0092593
        k(  171) = (   0.8358197   0.0122215   0.6142122), wk =   0.0092593
        k(  172) = (   0.9590970   0.0122215   0.3160510), wk =   0.0092593
        k(  173) = (   1.0823742   0.0122215   0.0178897), wk =   0.0092593
        k(  174) = (   1.2056514   0.0122215  -0.2802715), wk =   0.0092593
        k(  175) = (   0.5892653  -0.1099934   1.5086958), wk =   0.0092593
        k(  176) = (   0.7125425  -0.1099934   1.2105346), wk =   0.0092593
        k(  177) = (   0.8358197  -0.1099934   0.9123734), wk =   0.0092593
        k(  178) = (   0.9590970  -0.1099934   0.6142122), wk =   0.0092593
        k(  179) = (   1.0823742  -0.1099934   0.3160509), wk =   0.0092593
        k(  180) = (   1.2056514  -0.1099934   0.0178897), wk =   0.0092593
        k(  181) = (   0.7125424   0.6232960   0.0178898), wk =   0.0092593
        k(  182) = (   0.8358197   0.6232960  -0.2802714), wk =   0.0092593
        k(  183) = (   0.9590969   0.6232960  -0.5784326), wk =   0.0092593
        k(  184) = (   1.0823741   0.6232960  -0.8765938), wk =   0.0092593
        k(  185) = (   1.2056514   0.6232960  -1.1747550), wk =   0.0092593
        k(  186) = (   1.3289286   0.6232960  -1.4729162), wk =   0.0092593
        k(  187) = (   0.7125425   0.5010811   0.3160510), wk =   0.0092593
        k(  188) = (   0.8358197   0.5010811   0.0178898), wk =   0.0092593
        k(  189) = (   0.9590969   0.5010811  -0.2802714), wk =   0.0092593
        k(  190) = (   1.0823742   0.5010811  -0.5784326), wk =   0.0092593
        k(  191) = (   1.2056514   0.5010811  -0.8765938), wk =   0.0092593
        k(  192) = (   1.3289286   0.5010811  -1.1747550), wk =   0.0092593
        k(  193) = (   0.7125425   0.3788662   0.6142122), wk =   0.0092593
        k(  194) = (   0.8358197   0.3788662   0.3160510), wk =   0.0092593
        k(  195) = (   0.9590969   0.3788662   0.0178898), wk =   0.0092593
        k(  196) = (   1.0823742   0.3788662  -0.2802714), wk =   0.0092593
        k(  197) = (   1.2056514   0.3788662  -0.5784326), wk =   0.0092593
        k(  198) = (   1.3289286   0.3788662  -0.8765938), wk =   0.0092593
        k(  199) = (   0.7125425   0.2566513   0.9123734), wk =   0.0092593
        k(  200) = (   0.8358197   0.2566513   0.6142122), wk =   0.0092593
        k(  201) = (   0.9590970   0.2566513   0.3160510), wk =   0.0092593
        k(  202) = (   1.0823742   0.2566513   0.0178898), wk =   0.0092593
        k(  203) = (   1.2056514   0.2566513  -0.2802714), wk =   0.0092593
        k(  204) = (   1.3289286   0.2566513  -0.5784326), wk =   0.0092593
        k(  205) = (   0.7125425   0.1344364   1.2105346), wk =   0.0092593
        k(  206) = (   0.8358197   0.1344364   0.9123734), wk =   0.0092593
        k(  207) = (   0.9590970   0.1344364   0.6142122), wk =   0.0092593
        k(  208) = (   1.0823742   0.1344364   0.3160510), wk =   0.0092593
        k(  209) = (   1.2056514   0.1344364   0.0178898), wk =   0.0092593
        k(  210) = (   1.3289287   0.1344364  -0.2802714), wk =   0.0092593
        k(  211) = (   0.7125425   0.0122215   1.5086958), wk =   0.0092593
        k(  212) = (   0.8358198   0.0122215   1.2105346), wk =   0.0092593
        k(  213) = (   0.9590970   0.0122215   0.9123734), wk =   0.0092593
        k(  214) = (   1.0823742   0.0122215   0.6142122), wk =   0.0092593
        k(  215) = (   1.2056514   0.0122215   0.3160510), wk =   0.0092593
        k(  216) = (   1.3289287   0.0122215   0.0178898), wk =   0.0092593

                       cryst. coord.
        k(    1) = (   0.0783333   0.0616667   0.0516667), wk =   0.0092593
        k(    2) = (   0.0783333   0.0616667   0.2183333), wk =   0.0092593
        k(    3) = (   0.0783333   0.0616667   0.3850000), wk =   0.0092593
        k(    4) = (   0.0783333   0.0616667   0.5516667), wk =   0.0092593
        k(    5) = (   0.0783333   0.0616667   0.7183333), wk =   0.0092593
        k(    6) = (   0.0783333   0.0616667   0.8850000), wk =   0.0092593
        k(    7) = (   0.0783333   0.2283333   0.0516667), wk =   0.0092593
        k(    8) = (   0.0783333   0.2283333   0.2183333), wk =   0.0092593
        k(    9) = (   0.0783333   0.2283333   0.3850000), wk =   0.0092593
        k(   10) = (   0.0783333   0.2283333   0.5516667), wk =   0.0092593
        k(   11) = (   0.0783333   0.2283333   0.7183333), wk =   0.0092593
        k(   12) = (   0.0783333   0.2283333   0.8850000), wk =   0.0092593
        k(   13) = (   0.0783333   0.3950000   0.0516667), wk =   0.0092593
        k(   14) = (   0.0783333   0.3950000   0.2183333), wk =   0.0092593
        k(   15) = (   0.0783333   0.3950000   0.3850000), wk =   0.0092593
        k(   16) = (   0.0783333   0.3950000   0.5516667), wk =   0.0092593
        k(   17) = (   0.0783333   0.3950000   0.7183333), wk =   0.0092593
        k(   18) = (   0.0783333   0.3950000   0.8850000), wk =   0.0092593
        k(   19) = (   0.0783333   0.5616667   0.0516667), wk =   0.0092593
        k(   20) = (   0.0783333   0.5616667   0.2183333), wk =   0.0092593
        k(   21) = (   0.0783333   0.5616667   0.3850000), wk =   0.0092593
        k(   22) = (   0.0783333   0.5616667   0.5516667), wk =   0.0092593
        k(   23) = (   0.0783333   0.5616667   0.7183333), wk =   0.0092593
        k(   24) = (   0.0783333   0.5616667   0.8850000), wk =   0.0092593
        k(   25) = (   0.0783333   0.7283333   0.0516667), wk =   0.0092593
        k(   26) = (   0.0783333   0.7283333   0.2183333), wk =   0.0092593
        k(   27) = (   0.0783333   0.7283333   0.3850000), wk =   0.0092593
        k(   28) = (   0.0783333   0.7283333   0.5516667), wk =   0.0092593
        k(   29) = (   0.0783333   0.7283333   0.7183333), wk =   0.0092593
        k(   30) = (   0.0783333   0.7283333   0.8850000), wk =   0.0092593
        k(   31) = (   0.0783333   0.8950000   0.0516667), wk =   0.0092593
        k(   32) = (   0.0783333   0.8950000   0.2183333), wk =   0.0092593
        k(   33) = (   0.0783333   0.8950000   0.3850000), wk =   0.0092593
        k(   34) = (   0.0783333   0.8950000   0.5516667), wk =   0.0092593
        k(   35) = (   0.0783333   0.8950000   0.7183333), wk =   0.0092593
        k(   36) = (   0.0783333   0.8950000   0.8850000), wk =   0.0092593
        k(   37) = (   0.2450000   0.0616667   0.0516667), wk =   0.0092593
        k(   38) = (   0.2450000   0.0616667   0.2183333), wk =   0.0092593
        k(   39) = (   0.2450000   0.0616667   0.3850000), wk =   0.0092593
        k(   40) = (   0.2450000   0.0616667   0.5516667), wk =   0.0092593
        k(   41) = (   0.2450000   0.0616667   0.7183333), wk =   0.0092593
        k(   42) = (   0.2450000   0.0616667   0.8850000), wk =   0.0092593
        k(   43) = (   0.2450000   0.2283333   0.0516667), wk =   0.0092593
        k(   44) = (   0.2450000   0.2283333   0.2183333), wk =   0.0092593
        k(   45) = (   0.2450000   0.2283333   0.3850000), wk =   0.0092593
        k(   46) = (   0.2450000   0.2283333   0.5516667), wk =   0.0092593
        k(   47) = (   0.2450000   0.2283333   0.7183333), wk =   0.0092593
        k(   48) = (   0.2450000   0.2283333   0.8850000), wk =   0.0092593
        k(   49) = (   0.2450000   0.3950000   0.0516667), wk =   0.0092593
        k(   50) = (   0.2450000   0.3950000   0.2183333), wk =   0.0092593
        k(   51) = (   0.2450000   0.3950000   0.3850000), wk =   0.0092593
        k(   52) = (   0.2450000   0.3950000   0.5516667), wk =   0.0092593
        k(   53) = (   0.2450000   0.3950000   0.7183333), wk =   0.0092593
        k(   54) = (   0.2450000   0.3950000   0.8850000), wk =   0.0092593
        k(   55) = (   0.2450000   0.5616667   0.0516667), wk =   0.0092593
        k(   56) = (   0.2450000   0.5616667   0.2183333), wk =   0.0092593
        k(   57) = (   0.2450000   0.5616667   0.3850000), wk =   0.0092593
        k(   58) = (   0.2450000   0.5616667   0.5516667), wk =   0.0092593
        k(   59) = (   0.2450000   0.5616667   0.7183333), wk =   0.0092593
        k(   60) = (   0.2450000   0.5616667   0.8850000), wk =   0.0092593
        k(   61) = (   0.2450000   0.7283333   0.0516667), wk =   0.0092593
        k(   62) = (   0.2450000   0.7283333   0.2183333), wk =   0.0092593
        k(   63) = (   0.2450000   0.7283333   0.3850000), wk =   0.0092593
        k(   64) = (   0.2450000   0.7283333   0.5516667), wk =   0.0092593
        k(   65) = (   0.2450000   0.7283333   0.7183333), wk =   0.0092593
        k(   66) = (   0.2450000   0.7283333   0.8850000), wk =   0.0092593
        k(   67) = (   0.2450000   0.8950000   0.0516667), wk =   0.0092593
        k(   68) = (   0.2450000   0.8950000   0.2183333), wk =   0.0092593
        k(   69) = (   0.2450000   0.8950000   0.3850000), wk =   0.0092593
        k(   70) = (   0.2450000   0.8950000   0.5516667), wk =   0.0092593
        k(   71) = (   0.2450000   0.8950000   0.7183333), wk =   0.0092593
        k(   72) = (   0.2450000   0.8950000   0.8850000), wk =   0.0092593
        k(   73) = (   0.4116667   0.0616667   0.0516667), wk =   0.0092593
        k(   74) = (   0.4116667   0.0616667   0.2183333), wk =   0.0092593
        k(   75) = (   0.4116667   0.0616667   0.3850000), wk =   0.0092593
        k(   76) = (   0.4116667   0.0616667   0.5516667), wk =   0.0092593
        k(   77) = (   0.4116667   0.0616667   0.7183333), wk =   0.0092593
        k(   78) = (   0.4116667   0.0616667   0.8850000), wk =   0.0092593
        k(   79) = (   0.4116667   0.2283333   0.0516667), wk =   0.0092593
        k(   80) = (   0.4116667   0.2283333   0.2183333), wk =   0.0092593
        k(   81) = (   0.4116667   0.2283333   0.3850000), wk =   0.0092593
        k(   82) = (   0.4116667   0.2283333   0.5516667), wk =   0.0092593
        k(   83) = (   0.4116667   0.2283333   0.7183333), wk =   0.0092593
        k(   84) = (   0.4116667   0.2283333   0.8850000), wk =   0.0092593
        k(   85) = (   0.4116667   0.3950000   0.0516667), wk =   0.0092593
        k(   86) = (   0.4116667   0.3950000   0.2183333), wk =   0.0092593
        k(   87) = (   0.4116667   0.3950000   0.3850000), wk =   0.0092593
        k(   88) = (   0.4116667   0.3950000   0.5516667), wk =   0.0092593
        k(   89) = (   0.4116667   0.3950000   0.7183333), wk =   0.0092593
        k(   90) = (   0.4116667   0.3950000   0.8850000), wk =   0.0092593
        k(   91) = (   0.4116667   0.5616667   0.0516667), wk =   0.0092593
        k(   92) = (   0.4116667   0.5616667   0.2183333), wk =   0.0092593
        k(   93) = (   0.4116667   0.5616667   0.3850000), wk =   0.0092593
        k(   94) = (   0.4116667   0.5616667   0.5516667), wk =   0.0092593
        k(   95) = (   0.4116667   0.5616667   0.7183333), wk =   0.0092593
        k(   96) = (   0.4116667   0.5616667   0.8850000), wk =   0.0092593
        k(   97) = (   0.4116667   0.7283333   0.0516667), wk =   0.0092593
        k(   98) = (   0.4116667   0.7283333   0.2183333), wk =   0.0092593
        k(   99) = (   0.4116667   0.7283333   0.3850000), wk =   0.0092593
        k(  100) = (   0.4116667   0.7283333   0.5516667), wk =   0.0092593
        k(  101) = (   0.4116667   0.7283333   0.7183333), wk =   0.0092593
        k(  102) = (   0.4116667   0.7283333   0.8850000), wk =   0.0092593
        k(  103) = (   0.4116667   0.8950000   0.0516667), wk =   0.0092593
        k(  104) = (   0.4116667   0.8950000   0.2183333), wk =   0.0092593
        k(  105) = (   0.4116667   0.8950000   0.3850000), wk =   0.0092593
        k(  106) = (   0.4116667   0.8950000   0.5516667), wk =   0.0092593
        k(  107) = (   0.4116667   0.8950000   0.7183333), wk =   0.0092593
        k(  108) = (   0.4116667   0.8950000   0.8850000), wk =   0.0092593
        k(  109) = (   0.5783333   0.0616667   0.0516667), wk =   0.0092593
        k(  110) = (   0.5783333   0.0616667   0.2183333), wk =   0.0092593
        k(  111) = (   0.5783333   0.0616667   0.3850000), wk =   0.0092593
        k(  112) = (   0.5783333   0.0616667   0.5516667), wk =   0.0092593
        k(  113) = (   0.5783333   0.0616667   0.7183333), wk =   0.0092593
        k(  114) = (   0.5783333   0.0616667   0.8850000), wk =   0.0092593
        k(  115) = (   0.5783333   0.2283333   0.0516667), wk =   0.0092593
        k(  116) = (   0.5783333   0.2283333   0.2183333), wk =   0.0092593
        k(  117) = (   0.5783333   0.2283333   0.3850000), wk =   0.0092593
        k(  118) = (   0.5783333   0.2283333   0.5516667), wk =   0.0092593
        k(  119) = (   0.5783333   0.2283333   0.7183333), wk =   0.0092593
        k(  120) = (   0.5783333   0.2283333   0.8850000), wk =   0.0092593
        k(  121) = (   0.5783333   0.3950000   0.0516667), wk =   0.0092593
        k(  122) = (   0.5783333   0.3950000   0.2183333), wk =   0.0092593
        k(  123) = (   0.5783333   0.3950000   0.3850000), wk =   0.0092593
        k(  124) = (   0.5783333   0.3950000   0.5516667), wk =   0.0092593
        k(  125) = (   0.5783333   0.3950000   0.7183333), wk =   0.0092593
        k(  126) = (   0.5783333   0.3950000   0.8850000), wk =   0.0092593
        k(  127) = (   0.5783333   0.5616667   0.0516667), wk =   0.0092593
        k(  128) = (   0.5783333   0.5616667   0.2183333), wk =   0.0092593
        k(  129) = (   0.5783333   0.5616667   0.3850000), wk =   0.0092593
        k(  130) = (   0.5783333   0.5616667   0.5516667), wk =   0.0092593
        k(  131) = (   0.5783333   0.5616667   0.7183333), wk =   0.0092593
        k(  132) = (   0.5783333   0.5616667   0.8850000), wk =   0.0092593
        k(  133) = (   0.5783333   0.7283333   0.0516667), wk =   0.0092593
        k(  134) = (   0.5783333   0.7283333   0.2183333), wk =   0.0092593
        k(  135) = (   0.5783333   0.7283333   0.3850000), wk =   0.0092593
        k(  136) = (   0.5783333   0.7283333   0.5516667), wk =   0.0092593
        k(  137) = (   0.5783333   0.7283333   0.7183333), wk =   0.0092593
        k(  138) = (   0.5783333   0.7283333   0.8850000), wk =   0.0092593
        k(  139) = (   0.5783333   0.8950000   0.0516667), wk =   0.0092593
        k(  140) = (   0.5783333   0.8950000   0.2183333), wk =   0.0092593
        k(  141) = (   0.5783333   0.8950000   0.3850000), wk =   0.0092593
        k(  142) = (   0.5783333   0.8950000   0.5516667), wk =   0.0092593
        k(  143) = (   0.5783333   0.8950000   0.7183333), wk =   0.0092593
        k(  144) = (   0.5783333   0.8950000   0.8850000), wk =   0.0092593
        k(  145) = (   0.7450000   0.0616667   0.0516667), wk =   0.0092593
        k(  146) = (   0.7450000   0.0616667   0.2183333), wk =   0.0092593
        k(  147) = (   0.7450000   0.0616667   0.3850000), wk =   0.0092593
        k(  148) = (   0.7450000   0.0616667   0.5516667), wk =   0.0092593
        k(  149) = (   0.7450000   0.0616667   0.7183333), wk =   0.0092593
        k(  150) = (   0.7450000   0.0616667   0.8850000), wk =   0.0092593
        k(  151) = (   0.7450000   0.2283333   0.0516667), wk =   0.0092593
        k(  152) = (   0.7450000   0.2283333   0.2183333), wk =   0.0092593
        k(  153) = (   0.7450000   0.2283333   0.3850000), wk =   0.0092593
        k(  154) = (   0.7450000   0.2283333   0.5516667), wk =   0.0092593
        k(  155) = (   0.7450000   0.2283333   0.7183333), wk =   0.0092593
        k(  156) = (   0.7450000   0.2283333   0.8850000), wk =   0.0092593
        k(  157) = (   0.7450000   0.3950000   0.0516667), wk =   0.0092593
        k(  158) = (   0.7450000   0.3950000   0.2183333), wk =   0.0092593
        k(  159) = (   0.7450000   0.3950000   0.3850000), wk =   0.0092593
        k(  160) = (   0.7450000   0.3950000   0.5516667), wk =   0.0092593
        k(  161) = (   0.7450000   0.3950000   0.7183333), wk =   0.0092593
        k(  162) = (   0.7450000   0.3950000   0.8850000), wk =   0.0092593
        k(  163) = (   0.7450000   0.5616667   0.0516667), wk =   0.0092593
        k(  164) = (   0.7450000   0.5616667   0.2183333), wk =   0.0092593
        k(  165) = (   0.7450000   0.5616667   0.3850000), wk =   0.0092593
        k(  166) = (   0.7450000   0.5616667   0.5516667), wk =   0.0092593
        k(  167) = (   0.7450000   0.5616667   0.7183333), wk =   0.0092593
        k(  168) = (   0.7450000   0.5616667   0.8850000), wk =   0.0092593
        k(  169) = (   0.7450000   0.7283333   0.0516667), wk =   0.0092593
        k(  170) = (   0.7450000   0.7283333   0.2183333), wk =   0.0092593
        k(  171) = (   0.7450000   0.7283333   0.3850000), wk =   0.0092593
        k(  172) = (   0.7450000   0.7283333   0.5516667), wk =   0.0092593
        k(  173) = (   0.7450000   0.7283333   0.7183333), wk =   0.0092593
        k(  174) = (   0.7450000   0.7283333   0.8850000), wk =   0.0092593
        k(  175) = (   0.7450000   0.8950000   0.0516667), wk =   0.0092593
        k(  176) = (   0.7450000   0.8950000   0.2183333), wk =   0.0092593
        k(  177) = (   0.7450000   0.8950000   0.3850000), wk =   0.0092593
        k(  178) = (   0.7450000   0.8950000   0.5516667), wk =   0.0092593
        k(  179) = (   0.7450000   0.8950000   0.7183333), wk =   0.0092593
        k(  180) = (   0.7450000   0.8950000   0.8850000), wk =   0.0092593
        k(  181) = (   0.9116667   0.0616667   0.0516667), wk =   0.0092593
        k(  182) = (   0.9116667   0.0616667   0.2183333), wk =   0.0092593
        k(  183) = (   0.9116667   0.0616667   0.3850000), wk =   0.0092593
        k(  184) = (   0.9116667   0.0616667   0.5516667), wk =   0.0092593
        k(  185) = (   0.9116667   0.0616667   0.7183333), wk =   0.0092593
        k(  186) = (   0.9116667   0.0616667   0.8850000), wk =   0.0092593
        k(  187) = (   0.9116667   0.2283333   0.0516667), wk =   0.0092593
        k(  188) = (   0.9116667   0.2283333   0.2183333), wk =   0.0092593
        k(  189) = (   0.9116667   0.2283333   0.3850000), wk =   0.0092593
        k(  190) = (   0.9116667   0.2283333   0.5516667), wk =   0.0092593
        k(  191) = (   0.9116667   0.2283333   0.7183333), wk =   0.0092593
        k(  192) = (   0.9116667   0.2283333   0.8850000), wk =   0.0092593
        k(  193) = (   0.9116667   0.3950000   0.0516667), wk =   0.0092593
        k(  194) = (   0.9116667   0.3950000   0.2183333), wk =   0.0092593
        k(  195) = (   0.9116667   0.3950000   0.3850000), wk =   0.0092593
        k(  196) = (   0.9116667   0.3950000   0.5516667), wk =   0.0092593
        k(  197) = (   0.9116667   0.3950000   0.7183333), wk =   0.0092593
        k(  198) = (   0.9116667   0.3950000   0.8850000), wk =   0.0092593
        k(  199) = (   0.9116667   0.5616667   0.0516667), wk =   0.0092593
        k(  200) = (   0.9116667   0.5616667   0.2183333), wk =   0.0092593
        k(  201) = (   0.9116667   0.5616667   0.3850000), wk =   0.0092593
        k(  202) = (   0.9116667   0.5616667   0.5516667), wk =   0.0092593
        k(  203) = (   0.9116667   0.5616667   0.7183333), wk =   0.0092593
        k(  204) = (   0.9116667   0.5616667   0.8850000), wk =   0.0092593
        k(  205) = (   0.9116667   0.7283333   0.0516667), wk =   0.0092593
        k(  206) = (   0.9116667   0.7283333   0.2183333), wk =   0.0092593
        k(  207) = (   0.9116667   0.7283333   0.3850000), wk =   0.0092593
        k(  208) = (   0.9116667   0.7283333   0.5516667), wk =   0.0092593
        k(  209) = (   0.9116667   0.7283333   0.7183333), wk =   0.0092593
        k(  210) = (   0.9116667   0.7283333   0.8850000), wk =   0.0092593
        k(  211) = (   0.9116667   0.8950000   0.0516667), wk =   0.0092593
        k(  212) = (   0.9116667   0.8950000   0.2183333), wk =   0.0092593
        k(  213) = (   0.9116667   0.8950000   0.3850000), wk =   0.0092593
        k(  214) = (   0.9116667   0.8950000   0.5516667), wk =   0.0092593
        k(  215) = (   0.9116667   0.8950000   0.7183333), wk =   0.0092593
        k(  216) = (   0.9116667   0.8950000   0.8850000), wk =   0.0092593

     Dense  grid:   275321 G-vectors     FFT dimensions: ( 108, 108, 108)

     Dynamical RAM for                 wfc:       1.17 MB

     Dynamical RAM for     wfc (w. buffer):       1.17 MB

     Dynamical RAM for           str. fact:       0.50 MB

     Dynamical RAM for           local pot:       0.00 MB

     Dynamical RAM for          nlocal pot:       5.20 MB

     Dynamical RAM for                qrad:       6.22 MB

     Dynamical RAM for          rho,v,vnew:       1.10 MB

     Dynamical RAM for           G-vectors:       0.43 MB

     Dynamical RAM for          h,s,v(r/c):       1.62 MB

     Dynamical RAM for          <psi|beta>:       0.60 MB

     Dynamical RAM for                 psi:       2.35 MB

     Dynamical RAM for                hpsi:       2.35 MB

     Dynamical RAM for      wfcinit/wfcrot:       3.51 MB

     Estimated static dynamical RAM per process >      16.56 MB

     Estimated max dynamical RAM per process >      23.47 MB

     Estimated total dynamical RAM >       3.85 GB

     The potential is recalculated from file :
     ./scf1.save/charge-density

     Starting wfcs are  126 randomized atomic wfcs

     Band Structure Calculation
     Davidson diagonalization with overlap

     Computing kpt #:     1  of    54 on this pool
     c_bands:  1 eigenvalues not converged
     total cpu time spent up to now is        8.0 secs

     Computing kpt #:     2  of    54 on this pool
     total cpu time spent up to now is       13.6 secs

     Computing kpt #:     3  of    54 on this pool
     c_bands:  1 eigenvalues not converged
     total cpu time spent up to now is       18.3 secs

     Computing kpt #:     4  of    54 on this pool
     c_bands:  1 eigenvalues not converged
     total cpu time spent up to now is       23.2 secs

     Computing kpt #:     5  of    54 on this pool
     c_bands:  1 eigenvalues not converged
     total cpu time spent up to now is       28.1 secs

     Computing kpt #:     6  of    54 on this pool
     total cpu time spent up to now is       33.0 secs

     Computing kpt #:     7  of    54 on this pool
     c_bands:  1 eigenvalues not converged
     total cpu time spent up to now is       37.7 secs

     Computing kpt #:     8  of    54 on this pool
     c_bands:  1 eigenvalues not converged
     total cpu time spent up to now is       42.7 secs

     Computing kpt #:     9  of    54 on this pool
     total cpu time spent up to now is       48.1 secs

     Computing kpt #:    10  of    54 on this pool
     c_bands:  1 eigenvalues not converged
     total cpu time spent up to now is       53.0 secs

     Computing kpt #:    11  of    54 on this pool
     c_bands:  2 eigenvalues not converged
     total cpu time spent up to now is       57.8 secs

     Computing kpt #:    12  of    54 on this pool
     c_bands:  1 eigenvalues not converged
     total cpu time spent up to now is       62.7 secs

     Computing kpt #:    13  of    54 on this pool
     c_bands:  1 eigenvalues not converged
     total cpu time spent up to now is       67.6 secs

     Computing kpt #:    14  of    54 on this pool
     c_bands:  1 eigenvalues not converged
     total cpu time spent up to now is       72.5 secs

     Computing kpt #:    15  of    54 on this pool
     c_bands:  1 eigenvalues not converged
     total cpu time spent up to now is       77.5 secs

     Computing kpt #:    16  of    54 on this pool
     total cpu time spent up to now is       82.8 secs

     Computing kpt #:    17  of    54 on this pool
     c_bands:  1 eigenvalues not converged
     total cpu time spent up to now is       88.3 secs

     Computing kpt #:    18  of    54 on this pool
     total cpu time spent up to now is       93.2 secs

     Computing kpt #:    19  of    54 on this pool
     c_bands:  1 eigenvalues not converged
     total cpu time spent up to now is       98.0 secs

     Computing kpt #:    20  of    54 on this pool
     total cpu time spent up to now is      102.8 secs

     Computing kpt #:    21  of    54 on this pool
     total cpu time spent up to now is      107.7 secs

     Computing kpt #:    22  of    54 on this pool
     c_bands:  1 eigenvalues not converged
     total cpu time spent up to now is      112.8 secs

     Computing kpt #:    23  of    54 on this pool
     c_bands:  1 eigenvalues not converged
     total cpu time spent up to now is      117.6 secs

     Computing kpt #:    24  of    54 on this pool
     c_bands:  1 eigenvalues not converged
     total cpu time spent up to now is      123.3 secs

     Computing kpt #:    25  of    54 on this pool
     c_bands:  1 eigenvalues not converged
     total cpu time spent up to now is      128.3 secs

     Computing kpt #:    26  of    54 on this pool
     c_bands:  1 eigenvalues not converged
     total cpu time spent up to now is      133.3 secs

     Computing kpt #:    27  of    54 on this pool
     total cpu time spent up to now is      138.0 secs

     Computing kpt #:    28  of    54 on this pool
     c_bands:  1 eigenvalues not converged
     total cpu time spent up to now is      142.8 secs

     Computing kpt #:    29  of    54 on this pool
     c_bands:  1 eigenvalues not converged
     total cpu time spent up to now is      147.9 secs

     Computing kpt #:    30  of    54 on this pool
     c_bands:  1 eigenvalues not converged
     total cpu time spent up to now is      152.7 secs

     Computing kpt #:    31  of    54 on this pool
     c_bands:  1 eigenvalues not converged
     total cpu time spent up to now is      158.0 secs

     Computing kpt #:    32  of    54 on this pool
     c_bands:  1 eigenvalues not converged
     total cpu time spent up to now is      164.2 secs

     Computing kpt #:    33  of    54 on this pool
     c_bands:  2 eigenvalues not converged
     total cpu time spent up to now is      169.0 secs

     Computing kpt #:    34  of    54 on this pool
     c_bands:  1 eigenvalues not converged
     total cpu time spent up to now is      173.8 secs

     Computing kpt #:    35  of    54 on this pool
     c_bands:  1 eigenvalues not converged
     total cpu time spent up to now is      178.5 secs

     Computing kpt #:    36  of    54 on this pool
     c_bands:  1 eigenvalues not converged
     total cpu time spent up to now is      183.5 secs

     Computing kpt #:    37  of    54 on this pool
     c_bands:  1 eigenvalues not converged
     total cpu time spent up to now is      188.4 secs

     Computing kpt #:    38  of    54 on this pool
     total cpu time spent up to now is      193.4 secs

     Computing kpt #:    39  of    54 on this pool
     total cpu time spent up to now is      198.7 secs

     Computing kpt #:    40  of    54 on this pool
     total cpu time spent up to now is      203.6 secs

     Computing kpt #:    41  of    54 on this pool
     c_bands:  1 eigenvalues not converged
     total cpu time spent up to now is      208.3 secs

     Computing kpt #:    42  of    54 on this pool
     c_bands:  1 eigenvalues not converged
     total cpu time spent up to now is      213.3 secs

     Computing kpt #:    43  of    54 on this pool
     total cpu time spent up to now is      218.2 secs

     Computing kpt #:    44  of    54 on this pool
     total cpu time spent up to now is      223.0 secs

     Computing kpt #:    45  of    54 on this pool
     total cpu time spent up to now is      227.9 secs

     Computing kpt #:    46  of    54 on this pool
     total cpu time spent up to now is      233.3 secs

     Computing kpt #:    47  of    54 on this pool
     c_bands:  2 eigenvalues not converged
     total cpu time spent up to now is      239.0 secs

     Computing kpt #:    48  of    54 on this pool
     c_bands:  1 eigenvalues not converged
     total cpu time spent up to now is      243.6 secs

     Computing kpt #:    49  of    54 on this pool
     c_bands:  1 eigenvalues not converged
     total cpu time spent up to now is      248.4 secs

     Computing kpt #:    50  of    54 on this pool
     total cpu time spent up to now is      253.3 secs

     Computing kpt #:    51  of    54 on this pool
     total cpu time spent up to now is      258.2 secs

     Computing kpt #:    52  of    54 on this pool
     total cpu time spent up to now is      263.0 secs

     Computing kpt #:    53  of    54 on this pool
     total cpu time spent up to now is      268.1 secs

     Computing kpt #:    54  of    54 on this pool
     c_bands:  2 eigenvalues not converged
     total cpu time spent up to now is      273.6 secs

     ethr =  1.00E-13,  avg # of iterations =112.3

     total cpu time spent up to now is      273.6 secs

     End of band structure calculation

          k = 0.0962 0.0122 0.0179 ( 34353 PWs)   bands (ev):

   -18.0943 -18.0801 -17.7690 -17.7556 -14.0212 -13.9881 -13.9311 -13.9287
   -13.9073 -13.8996 -13.8974 -13.8915 -13.8723 -13.8694 -12.6113 -12.5530
   -11.7853 -11.5751 -11.4257 -11.3448 -11.3215 -11.3002 -11.0971 -11.0608
   -10.7066 -10.6223 -10.0977  -9.9269  -9.3880  -9.3590  -7.7543  -7.7103
    -7.3471  -7.2622  -6.3185  -6.1591  -5.7195  -5.6443  -4.8929  -4.8462
    -4.7979  -4.7429  -4.5124  -4.2378  -4.0954  -4.0557  -3.2683  -3.1131
    -2.9455  -2.8969  -2.8811  -2.8232  -2.8203  -2.6498  -2.4490  -2.3861
    -2.2841  -2.1803  -1.3357  -0.9418  -0.7329  -0.6641  -0.2481   0.2290
     0.3330   0.4051   0.4659   0.5282   0.5761   0.5875   0.7014   0.7281
     0.7387   0.8775   0.9351   1.0715   1.0830   1.0870   1.1070   1.1746
     1.2444   1.3374   5.9088   5.9811   6.2248   6.2936   6.7386   7.0841
     7.3387   7.4785   7.6061   7.6202   8.1290   8.3285

          k = 0.2194 0.0122-0.2803 ( 34370 PWs)   bands (ev):

   -18.0908 -18.0819 -17.7649 -17.7580 -14.0085 -13.9788 -13.9313 -13.9295
   -13.9063 -13.8996 -13.8977 -13.8925 -13.8721 -13.8696 -12.6018 -12.5614
   -11.7752 -11.5752 -11.4269 -11.3603 -11.3392 -11.3234 -11.0876 -11.0707
   -10.6779 -10.6669 -10.0948  -9.9529  -9.3962  -9.3777  -7.7025  -7.6810
    -7.2918  -7.2396  -6.3037  -6.1928  -5.7302  -5.6343  -5.0251  -4.9446
    -4.8180  -4.7999  -4.5060  -4.2431  -4.0884  -4.0738  -3.2333  -3.0990
    -2.9899  -2.9606  -2.8738  -2.8372  -2.7729  -2.6341  -2.4325  -2.3776
    -2.2304  -2.1773  -1.0150  -0.6929  -0.6022  -0.5691  -0.2267   0.1706
     0.2474   0.3232   0.4349   0.4923   0.5789   0.6409   0.6439   0.7071
     0.7847   0.7923   0.9767   1.0012   1.0318   1.1180   1.1333   1.1754
     1.3243   1.4130   5.8253   5.9572   6.0969   6.1887   6.8216   6.9422
     7.0386   7.2508   7.4489   7.7481   8.1472   8.2132

          k = 0.3427 0.0122-0.5784 ( 34409 PWs)   bands (ev):

   -18.0857 -18.0832 -17.7603 -17.7591 -13.9773 -13.9585 -13.9329 -13.9320
   -13.9034 -13.8996 -13.8985 -13.8952 -13.8715 -13.8700 -12.5899 -12.5708
   -11.7333 -11.5917 -11.4344 -11.3999 -11.3877 -11.3628 -11.0803 -11.0683
   -10.7333 -10.6449 -10.1142  -9.9948  -9.4185  -9.4115  -7.5999  -7.5960
    -7.1900  -7.1768  -6.2924  -6.2424  -5.7414  -5.6211  -5.2721  -5.2112
    -4.8878  -4.7962  -4.5042  -4.2498  -4.0991  -4.0840  -3.1969  -3.1397
    -3.0054  -2.9881  -2.8779  -2.8281  -2.7744  -2.6132  -2.3977  -2.3438
    -2.1551  -2.1490  -0.5103  -0.4389  -0.2564  -0.1812   0.0309   0.0405
     0.1494   0.1677   0.3168   0.4200   0.6052   0.6262   0.6797   0.7266
     0.7772   0.8167   0.9156   0.9956   1.0169   1.0878   1.1529   1.1618
     1.4995   1.6202   5.2848   5.5022   5.9000   5.9762   6.0229   6.2431
     7.1575   7.5594   7.6158   7.8702   8.1714   8.2467

          k = 0.4660 0.0122-0.8766 ( 34440 PWs)   bands (ev):

   -18.0841 -18.0827 -17.7599 -17.7575 -13.9521 -13.9507 -13.9356 -13.9353
   -13.8995 -13.8993 -13.8992 -13.8991 -13.8708 -13.8707 -12.5876 -12.5720
   -11.6617 -11.6504 -11.4380 -11.4346 -11.4027 -11.3846 -11.0788 -11.0589
   -10.7576 -10.6417 -10.1342 -10.0090  -9.4323  -9.4263  -7.5488  -7.5413
    -7.1421  -7.1360  -6.2994  -6.2602  -5.7410  -5.6180  -5.3716  -5.3512
    -4.9165  -4.8010  -4.5077  -4.2511  -4.1075  -4.0894  -3.2194  -3.1607
    -2.9761  -2.9533  -2.9399  -2.8026  -2.7778  -2.6060  -2.3801  -2.3255
    -2.1359  -2.1058  -0.2816  -0.2751  -0.2547  -0.2196  -0.0683   0.0849
     0.0995   0.2468   0.4907   0.5324   0.6146   0.6494   0.6707   0.7392
     0.7982   0.8249   0.9261   1.0000   1.0154   1.0654   1.1358   1.1576
     1.7913   1.8499   4.5939   4.6237   5.8734   5.9486   5.9570   5.9685
     7.3896   7.6351   7.8375   7.9099   8.2499   8.3479

          k = 0.5893 0.0122-1.1748 ( 34462 PWs)   bands (ev):

   -18.0877 -18.0809 -17.7617 -17.7574 -13.9734 -13.9565 -13.9332 -13.9323
   -13.9030 -13.8996 -13.8986 -13.8957 -13.8714 -13.8701 -12.5974 -12.5638
   -11.7252 -11.5978 -11.4268 -11.3987 -11.3977 -11.3743 -11.0730 -11.0723
   -10.7127 -10.6731 -10.1339  -9.9814  -9.4260  -9.4088  -7.5947  -7.5795
    -7.1935  -7.1557  -6.3211  -6.2255  -5.7305  -5.6280  -5.2859  -5.2354
    -4.8642  -4.8284  -4.5150  -4.2451  -4.1007  -4.0900  -3.2510  -3.0997
    -2.9956  -2.9753  -2.9008  -2.8398  -2.7393  -2.6224  -2.3929  -2.3431
    -2.1467  -2.1465  -0.4840  -0.4392  -0.1872  -0.1528   0.0345   0.0640
     0.1337   0.1880   0.3112   0.4447   0.5751   0.6453   0.6643   0.7239
     0.7706   0.7867   0.9113   0.9618   1.0245   1.0959   1.1679   1.1711
     1.5725   1.6416   5.1287   5.3779   5.8788   5.9618   6.0174   6.1867
     7.3073   7.4907   7.6258   7.8794   8.1345   8.3546

          k = 0.7125 0.0122-1.4729 ( 34373 PWs)   bands (ev):

   -18.0927 -18.0795 -17.7674 -17.7552 -14.0054 -13.9766 -13.9314 -13.9297
   -13.9060 -13.8996 -13.8978 -13.8927 -13.8720 -13.8696 -12.6091 -12.5542
   -11.7705 -11.5769 -11.4256 -11.3640 -11.3429 -11.3299 -11.0926 -11.0633
   -10.7048 -10.6443 -10.1166  -9.9414  -9.4040  -9.3754  -7.7004  -7.6599
    -7.2963  -7.2191  -6.3278  -6.1740  -5.7198  -5.6411  -5.0528  -4.9552
    -4.8518  -4.7908  -4.5196  -4.2386  -4.1024  -4.0611  -3.2597  -3.0809
    -3.0053  -2.9632  -2.8634  -2.8429  -2.7403  -2.6493  -2.4294  -2.3728
    -2.2307  -2.1676  -0.9170  -0.6751  -0.5996  -0.5055  -0.2052   0.1810
     0.2209   0.3430   0.4297   0.4636   0.5664   0.6107   0.6231   0.7484
     0.7629   0.7863   0.9480   0.9865   1.0240   1.1208   1.1516   1.1817
     1.3721   1.4179   5.8292   5.9322   5.9995   6.1804   6.8559   6.9271
     6.9449   7.1862   7.4676   7.7191   8.2064   8.2521

          k = 0.0962-0.1100 0.3161 ( 34391 PWs)   bands (ev):

   -18.0922 -18.0800 -17.7670 -17.7557 -14.0054 -13.9766 -13.9314 -13.9297
   -13.9060 -13.8996 -13.8978 -13.8927 -13.8720 -13.8696 -12.6067 -12.5565
   -11.7711 -11.5763 -11.4265 -11.3644 -11.3422 -11.3295 -11.0929 -11.0646
   -10.7031 -10.6455 -10.1078  -9.9488  -9.4031  -9.3767  -7.6993  -7.6617
    -7.2929  -7.2220  -6.3213  -6.1807  -5.7157  -5.6468  -5.0534  -4.9593
    -4.8540  -4.7916  -4.4999  -4.2500  -4.1017  -4.0628  -3.2483  -3.0801
    -3.0126  -2.9646  -2.8699  -2.8365  -2.7466  -2.6463  -2.4258  -2.3744
    -2.2276  -2.1699  -0.9229  -0.6749  -0.5929  -0.4996  -0.2120   0.1732
     0.2216   0.3269   0.4291   0.4756   0.5676   0.6120   0.6292   0.7366
     0.7797   0.7827   0.9462   0.9960   1.0227   1.1170   1.1342   1.1797
     1.3838   1.4263   5.8200   5.9187   6.0193   6.1673   6.8488   6.9203
     6.9660   7.2195   7.4293   7.7467   8.1558   8.2677

          k = 0.2194-0.1100 0.0179 ( 34369 PWs)   bands (ev):

   -18.0921 -18.0824 -17.7664 -17.7582 -14.0212 -13.9881 -13.9311 -13.9287
   -13.9073 -13.8996 -13.8974 -13.8915 -13.8723 -13.8694 -12.6030 -12.5611
   -11.7873 -11.5732 -11.4259 -11.3475 -11.3206 -11.2993 -11.0926 -11.0689
   -10.6836 -10.6448 -10.0754  -9.9446  -9.3835  -9.3643  -7.7466  -7.7208
    -7.3321  -7.2743  -6.2962  -6.1826  -5.7230  -5.6443  -4.8938  -4.8409
    -4.8242  -4.7311  -4.4831  -4.2522  -4.0869  -4.0692  -3.2455  -3.0969
    -2.9576  -2.9160  -2.8823  -2.8399  -2.8218  -2.6325  -2.4438  -2.3920
    -2.2708  -2.1904  -1.3550  -0.9259  -0.7288  -0.6507  -0.2620   0.2045
     0.3570   0.3617   0.4917   0.5080   0.5940   0.6154   0.6690   0.7327
     0.7458   0.8608   0.9625   1.0565   1.0654   1.0793   1.1207   1.1684
     1.2746   1.3442   5.8651   5.9980   6.2104   6.3135   6.7166   7.1556
     7.3180   7.4749   7.6257   7.6543   8.0547   8.2280

          k = 0.3427-0.1100-0.2803 ( 34401 PWs)   bands (ev):

   -18.0879 -18.0850 -17.7615 -17.7614 -14.0086 -13.9788 -13.9313 -13.9295
   -13.9063 -13.8996 -13.8977 -13.8925 -13.8721 -13.8696 -12.5911 -12.5717
   -11.7770 -11.5732 -11.4283 -11.3618 -11.3374 -11.3232 -11.0829 -11.0803
   -10.6945 -10.6464 -10.0690  -9.9772  -9.3902  -9.3848  -7.6937  -7.6917
    -7.2737  -7.2560  -6.2730  -6.2220  -5.7370  -5.6319  -5.0320  -4.9611
    -4.8228  -4.7819  -4.4757  -4.2605  -4.0910  -4.0742  -3.1980  -3.1042
    -2.9950  -2.9723  -2.8873  -2.8362  -2.7811  -2.6270  -2.4254  -2.3817
    -2.2173  -2.1879  -1.0324  -0.6897  -0.5853  -0.5542  -0.2459   0.1504
     0.2548   0.2926   0.4242   0.5204   0.5908   0.6278   0.6658   0.6985
     0.7859   0.8155   0.9954   1.0064   1.0343   1.0895   1.1147   1.1687
     1.3275   1.4281   5.8045   5.9784   6.0978   6.1907   6.7983   6.9426
     7.0143   7.3551   7.4274   7.8029   8.0015   8.1512

          k = 0.4660-0.1100-0.5784 ( 34433 PWs)   bands (ev):

   -18.0852 -18.0838 -17.7625 -17.7570 -13.9773 -13.9585 -13.9329 -13.9319
   -13.9034 -13.8996 -13.8985 -13.8952 -13.8715 -13.8700 -12.5828 -12.5776
   -11.7339 -11.5904 -11.4370 -11.4013 -11.3848 -11.3619 -11.0888 -11.0638
   -10.7469 -10.6272 -10.0952 -10.0143  -9.4164  -9.4143  -7.6074  -7.5887
    -7.1876  -7.1788  -6.2712  -6.2625  -5.7437  -5.6220  -5.2785  -5.2067
    -4.9086  -4.7780  -4.4794  -4.2667  -4.1097  -4.0762  -3.1804  -3.1536
    -3.0154  -2.9788  -2.8798  -2.8404  -2.7483  -2.6296  -2.3931  -2.3438
    -2.1591  -2.1447  -0.5098  -0.4183  -0.2604  -0.2050   0.0196   0.0288
     0.1588   0.1618   0.3308   0.4108   0.6015   0.6300   0.6657   0.7385
     0.7968   0.8413   0.9155   0.9946   1.0383   1.0729   1.1314   1.1518
     1.4973   1.6275   5.2903   5.5023   5.8922   5.9749   6.0139   6.2466
     7.1636   7.5879   7.6468   7.8986   8.0930   8.1962

          k = 0.5893-0.1100-0.8766 ( 34423 PWs)   bands (ev):

   -18.0839 -18.0828 -17.7599 -17.7575 -13.9521 -13.9507 -13.9356 -13.9353
   -13.8995 -13.8993 -13.8992 -13.8991 -13.8708 -13.8707 -12.5865 -12.5732
   -11.6618 -11.6502 -11.4350 -11.4313 -11.4046 -11.3884 -11.0799 -11.0597
   -10.7521 -10.6479 -10.1256 -10.0156  -9.4316  -9.4267  -7.5489  -7.5413
    -7.1405  -7.1361  -6.2996  -6.2655  -5.7349  -5.6241  -5.3676  -5.3504
    -4.9126  -4.8064  -4.4894  -4.2633  -4.1102  -4.0940  -3.2432  -3.1498
    -2.9808  -2.9498  -2.9139  -2.8318  -2.7377  -2.6277  -2.3757  -2.3276
    -2.1343  -2.1071  -0.2804  -0.2681  -0.2555  -0.2161  -0.0759   0.0528
     0.1366   0.2411   0.4815   0.5294   0.5807   0.6657   0.6853   0.7516
     0.7857   0.8128   0.9583   0.9960   1.0181   1.0482   1.1391   1.1599
     1.8002   1.8494   4.5981   4.6149   5.8582   5.9110   5.9741   5.9883
     7.4399   7.6250   7.8314   7.9786   8.2082   8.2686

          k = 0.7125-0.1100-1.1748 ( 34420 PWs)   bands (ev):

   -18.0882 -18.0803 -17.7625 -17.7565 -13.9734 -13.9565 -13.9332 -13.9323
   -13.9030 -13.8996 -13.8986 -13.8957 -13.8714 -13.8701 -12.5985 -12.5626
   -11.7251 -11.5978 -11.4239 -11.4028 -11.3900 -11.3801 -11.0761 -11.0702
   -10.7002 -10.6864 -10.1314  -9.9829  -9.4269  -9.4075  -7.5977  -7.5762
    -7.1964  -7.1526  -6.3266  -6.2227  -5.7210  -5.6368  -5.2858  -5.2311
    -4.8523  -4.8455  -4.4998  -4.2548  -4.1070  -4.0872  -3.2600  -3.0968
    -2.9986  -2.9609  -2.9070  -2.8450  -2.7139  -2.6412  -2.3881  -2.3454
    -2.1489  -2.1442  -0.4841  -0.4387  -0.1881  -0.1512   0.0332   0.0938
     0.1071   0.1872   0.3149   0.4472   0.5645   0.6340   0.6621   0.7397
     0.7648   0.7824   0.9112   0.9567   1.0216   1.0997   1.1683   1.1714
     1.5916   1.6395   5.1220   5.3748   5.8672   5.9524   6.0269   6.1877
     7.4037   7.4516   7.6013   7.9072   8.0912   8.3658

          k = 0.0962-0.2322 0.6142 ( 34407 PWs)   bands (ev):

   -18.0876 -18.0808 -17.7626 -17.7564 -13.9734 -13.9564 -13.9332 -13.9323
   -13.9029 -13.8996 -13.8986 -13.8957 -13.8714 -13.8701 -12.5948 -12.5661
   -11.7255 -11.5969 -11.4295 -11.4036 -11.3872 -11.3773 -11.0796 -11.0682
   -10.7012 -10.6866 -10.1082 -10.0030  -9.4256  -9.4091  -7.5980  -7.5762
    -7.1935  -7.1553  -6.3161  -6.2323  -5.7016  -5.6579  -5.2883  -5.2313
    -4.8692  -4.8425  -4.4467  -4.2926  -4.1084  -4.0850  -3.2341  -3.1240
    -3.0062  -2.9550  -2.9062  -2.8366  -2.7114  -2.6521  -2.3761  -2.3513
    -2.1503  -2.1420  -0.4853  -0.4211  -0.1948  -0.1646   0.0155   0.0786
     0.1095   0.1931   0.3282   0.4384   0.5712   0.6048   0.6949   0.7433
     0.7598   0.8133   0.9088   0.9578   1.0130   1.1005   1.1543   1.1647
     1.5916   1.6568   5.1292   5.3743   5.8502   5.9156   6.0323   6.1963
     7.4193   7.5081   7.5921   7.9637   8.0489   8.3261

          k = 0.2194-0.2322 0.3161 ( 34399 PWs)   bands (ev):

   -18.0901 -18.0823 -17.7650 -17.7576 -14.0054 -13.9766 -13.9314 -13.9298
   -13.9060 -13.8996 -13.8978 -13.8927 -13.8720 -13.8696 -12.5974 -12.5654
   -11.7727 -11.5746 -11.4287 -11.3669 -11.3388 -11.3293 -11.0908 -11.0704
   -10.6934 -10.6546 -10.0766  -9.9757  -9.3988  -9.3818  -7.6941  -7.6694
    -7.2793  -7.2338  -6.2957  -6.2059  -5.7037  -5.6630  -5.0564  -4.9719
    -4.8514  -4.7963  -4.4413  -4.2889  -4.0966  -4.0698  -3.2115  -3.0789
    -3.0296  -2.9732  -2.8852  -2.8333  -2.7498  -2.6427  -2.4145  -2.3813
    -2.2160  -2.1793  -0.9387  -0.6727  -0.5728  -0.4853  -0.2319   0.1488
     0.2223   0.2982   0.4274   0.4941   0.5735   0.5930   0.6635   0.7146
     0.7826   0.8260   0.9675   0.9894   1.0168   1.0873   1.1154   1.1703
     1.4034   1.4499   5.7745   5.9369   6.0279   6.1560   6.8368   6.9067
     7.0038   7.2787   7.3820   7.8236   8.0129   8.2721

          k = 0.3427-0.2322 0.0179 ( 34399 PWs)   bands (ev):

   -18.0886 -18.0861 -17.7626 -17.7619 -14.0212 -13.9880 -13.9310 -13.9287
   -13.9073 -13.8996 -13.8974 -13.8915 -13.8723 -13.8694 -12.5891 -12.5746
   -11.7896 -11.5704 -11.4266 -11.3515 -11.3184 -11.2974 -11.0852 -11.0822
   -10.6706 -10.6550 -10.0376  -9.9792  -9.3766  -9.3722  -7.7360  -7.7336
    -7.3099  -7.2943  -6.2589  -6.2206  -5.7166  -5.6553  -4.8965  -4.8713
    -4.8121  -4.7257  -4.4221  -4.2932  -4.0875  -4.0739  -3.2127  -3.0656
    -2.9906  -2.9527  -2.8803  -2.8475  -2.8215  -2.6165  -2.4308  -2.4032
    -2.2469  -2.2105  -1.3757  -0.9086  -0.7249  -0.6310  -0.2806   0.1764
     0.3427   0.3855   0.4880   0.4991   0.5878   0.6171   0.6471   0.7336
     0.8033   0.8460   0.9743   1.0094   1.0497   1.0780   1.1281   1.1580
     1.3196   1.3714   5.8086   6.0297   6.1264   6.3705   6.7646   7.1766
     7.3388   7.4771   7.6517   7.7217   7.8905   8.1649

          k = 0.4660-0.2322-0.2803 ( 34425 PWs)   bands (ev):

   -18.0883 -18.0845 -17.7651 -17.7579 -14.0086 -13.9788 -13.9313 -13.9295
   -13.9063 -13.8996 -13.8977 -13.8925 -13.8721 -13.8696 -12.5847 -12.5776
   -11.7782 -11.5712 -11.4294 -11.3641 -11.3330 -11.3236 -11.0963 -11.0724
   -10.7143 -10.6218 -10.0344 -10.0124  -9.3925  -9.3832  -7.7050  -7.6803
    -7.2756  -7.2543  -6.2589  -6.2352  -5.7291  -5.6432  -5.0370  -4.9638
    -4.8479  -4.7626  -4.4159  -4.3052  -4.1055  -4.0623  -3.1732  -3.0958
    -3.0165  -2.9828  -2.8999  -2.8348  -2.7691  -2.6311  -2.4091  -2.3905
    -2.2046  -2.1997  -1.0423  -0.6899  -0.5687  -0.5466  -0.2613   0.1439
     0.2505   0.2830   0.4273   0.5359   0.5815   0.6020   0.6630   0.7144
     0.7932   0.8717   0.9550   1.0082   1.0166   1.0541   1.1162   1.1644
     1.3676   1.4475   5.7877   6.0045   6.0278   6.1977   6.8731   6.9568
     7.0237   7.3306   7.4810   7.8295   7.8509   8.1455

          k = 0.5893-0.2322-0.5784 ( 34412 PWs)   bands (ev):

   -18.0869 -18.0820 -17.7639 -17.7555 -13.9773 -13.9585 -13.9329 -13.9319
   -13.9034 -13.8996 -13.8985 -13.8952 -13.8715 -13.8700 -12.5853 -12.5750
   -11.7340 -11.5899 -11.4365 -11.4001 -11.3824 -11.3650 -11.0937 -11.0619
   -10.7463 -10.6281 -10.0643 -10.0432  -9.4204  -9.4100  -7.6122  -7.5833
    -7.1973  -7.1689  -6.2864  -6.2509  -5.7281  -5.6380  -5.2773  -5.2015
    -4.9172  -4.7833  -4.4225  -4.3100  -4.1171  -4.0743  -3.1806  -3.1632
    -3.0180  -2.9615  -2.8939  -2.8365  -2.7073  -2.6656  -2.3808  -2.3499
    -2.1613  -2.1422  -0.5105  -0.4063  -0.2651  -0.2120   0.0064   0.0454
     0.1399   0.1683   0.3444   0.4103   0.5646   0.6255   0.6824   0.7427
     0.8095   0.8629   0.9026   0.9645   1.0264   1.0945   1.1197   1.1486
     1.5261   1.6354   5.2800   5.4988   5.8792   5.9311   6.0464   6.2389
     7.2537   7.5361   7.7498   7.9187   7.9832   8.1868

          k = 0.7125-0.2322-0.8766 ( 34432 PWs)   bands (ev):

   -18.0836 -18.0832 -17.7596 -17.7578 -13.9521 -13.9507 -13.9356 -13.9353
   -13.8995 -13.8993 -13.8992 -13.8991 -13.8708 -13.8707 -12.5837 -12.5762
   -11.6615 -11.6506 -11.4322 -11.4295 -11.4036 -11.3937 -11.0772 -11.0634
   -10.7349 -10.6696 -10.1007 -10.0356  -9.4302  -9.4277  -7.5481  -7.5425
    -7.1386  -7.1372  -6.2947  -6.2756  -5.7134  -5.6449  -5.3628  -5.3514
    -4.8986  -4.8327  -4.4363  -4.3022  -4.1102  -4.0995  -3.2360  -3.1698
    -2.9800  -2.9588  -2.8697  -2.8533  -2.7075  -2.6597  -2.3636  -2.3346
    -2.1288  -2.1115  -0.2717  -0.2635  -0.2526  -0.2295  -0.0673   0.0129
     0.1786   0.2293   0.4846   0.5255   0.5617   0.6411   0.7130   0.7649
     0.7754   0.8087   0.9766   0.9790   1.0216   1.0252   1.1560   1.1674
     1.8165   1.8489   4.5988   4.6104   5.8365   5.8661   5.9915   6.0024
     7.5026   7.6033   7.9049   8.0959   8.1237   8.2066

          k = 0.0962-0.3544 0.9124 ( 34432 PWs)   bands (ev):

   -18.0836 -18.0832 -17.7590 -17.7584 -13.9521 -13.9508 -13.9355 -13.9353
   -13.8995 -13.8993 -13.8992 -13.8991 -13.8708 -13.8707 -12.5802 -12.5797
   -11.6608 -11.6513 -11.4329 -11.4314 -11.3983 -11.3967 -11.0711 -11.0686
   -10.7092 -10.6989 -10.0685 -10.0649  -9.4292  -9.4286  -7.5463  -7.5442
    -7.1391  -7.1372  -6.2860  -6.2841  -5.6828  -5.6748  -5.3602  -5.3551
    -4.8760  -4.8648  -4.3719  -4.3604  -4.1049  -4.1019  -3.2030  -3.1994
    -2.9733  -2.9643  -2.8717  -2.8633  -2.6831  -2.6785  -2.3493  -2.3461
    -2.1211  -2.1186  -0.2785  -0.2609  -0.2417  -0.2400  -0.0409  -0.0245
     0.2088   0.2133   0.4958   0.5215   0.5815   0.5966   0.7445   0.7485
     0.7934   0.7955   0.9618   0.9684   1.0239   1.0316   1.1660   1.1672
     1.8296   1.8440   4.5936   4.6166   5.8305   5.8353   6.0009   6.0119
     7.5420   7.5573   8.0119   8.0415   8.1748   8.2068

          k = 0.2194-0.3544 0.6142 ( 34407 PWs)   bands (ev):

   -18.0862 -18.0823 -17.7618 -17.7571 -13.9734 -13.9564 -13.9332 -13.9323
   -13.9029 -13.8996 -13.8986 -13.8957 -13.8714 -13.8701 -12.5871 -12.5734
   -11.7259 -11.5960 -11.4357 -11.4064 -11.3865 -11.3706 -11.0809 -11.0675
   -10.7137 -10.6747 -10.0721 -10.0368  -9.4222  -9.4131  -7.5956  -7.5794
    -7.1856  -7.1633  -6.2931  -6.2513  -5.6856  -5.6764  -5.2923  -5.2346
    -4.8838  -4.8349  -4.3797  -4.3509  -4.1046  -4.0835  -3.1933  -3.1503
    -3.0089  -2.9660  -2.9008  -2.8550  -2.6853  -2.6692  -2.3622  -2.3614
    -2.1505  -2.1412  -0.4849  -0.4025  -0.2017  -0.1798   0.0030   0.0490
     0.1136   0.2010   0.3400   0.4269   0.5818   0.6106   0.7121   0.7291
     0.7666   0.8515   0.9060   0.9642   1.0214   1.0910   1.1238   1.1586
     1.5837   1.6680   5.1451   5.3764   5.8272   5.9009   6.0211   6.2191
     7.4029   7.4353   7.7345   7.9936   8.0337   8.2379

          k = 0.3427-0.3544 0.3161 ( 34428 PWs)   bands (ev):

   -18.0870 -18.0855 -17.7621 -17.7605 -14.0054 -13.9766 -13.9314 -13.9298
   -13.9060 -13.8996 -13.8978 -13.8927 -13.8720 -13.8696 -12.5842 -12.5784
   -11.7737 -11.5736 -11.4300 -11.3690 -11.3349 -11.3307 -11.0840 -11.0793
   -10.6800 -10.6677 -10.0368 -10.0128  -9.3923  -9.3890  -7.6853  -7.6798
    -7.2599  -7.2518  -6.2593  -6.2422  -5.6880  -5.6816  -5.0594  -4.9800
    -4.8444  -4.8021  -4.3758  -4.3438  -4.0891  -4.0780  -3.1823  -3.0774
    -3.0405  -2.9855  -2.8954  -2.8369  -2.7419  -2.6439  -2.3996  -2.3938
    -2.2007  -2.1932  -0.9484  -0.6702  -0.5580  -0.4782  -0.2456   0.1318
     0.2215   0.2860   0.4281   0.5018   0.5781   0.5815   0.6655   0.7104
     0.7886   0.8926   0.9412   1.0001   1.0177   1.0438   1.1180   1.1619
     1.4126   1.4644   5.7447   5.9681   6.0011   6.1677   6.8460   6.8801
     7.0591   7.2012   7.4704   7.8785   7.8918   8.2362

          k = 0.4660-0.3544 0.0179 ( 34385 PWs)   bands (ev):

   -18.0900 -18.0846 -17.7657 -17.7588 -14.0212 -13.9880 -13.9310 -13.9287
   -13.9073 -13.8996 -13.8974 -13.8915 -13.8723 -13.8694 -12.5904 -12.5731
   -11.7900 -11.5695 -11.4272 -11.3525 -11.3173 -11.2962 -11.0959 -11.0742
   -10.6935 -10.6296 -10.0283  -9.9894  -9.3804  -9.3685  -7.7461  -7.7229
    -7.3176  -7.2871  -6.2641  -6.2148  -5.7004  -5.6726  -4.9017  -4.8775
    -4.8085  -4.7245  -4.3709  -4.3380  -4.0987  -4.0632  -3.2058  -3.0429
    -3.0178  -2.9623  -2.8783  -2.8465  -2.8195  -2.6144  -2.4257  -2.4053
    -2.2401  -2.2168  -1.3783  -0.9058  -0.7271  -0.6244  -0.2848   0.1764
     0.3357   0.3787   0.5002   0.5075   0.5749   0.6089   0.6517   0.7224
     0.8320   0.8504   0.9428   0.9978   1.0460   1.0802   1.1260   1.1598
     1.3448   1.3810   5.7999   6.0405   6.0873   6.3683   6.8466   7.1155
     7.3749   7.4814   7.6528   7.7358   7.8485   8.1943

          k = 0.5893-0.3544-0.2803 ( 34397 PWs)   bands (ev):

[...]
    -7.1392  -7.1376  -6.2848  -6.2834  -5.6827  -5.6749  -5.3612  -5.3563
    -4.8764  -4.8660  -4.3723  -4.3607  -4.1029  -4.1002  -3.1992  -3.1961
    -2.9715  -2.9627  -2.8819  -2.8735  -2.6791  -2.6738  -2.3491  -2.3460
    -2.1210  -2.1186  -0.2818  -0.2660  -0.2382  -0.2369  -0.0405  -0.0252
     0.2086   0.2149   0.4963   0.5218   0.5853   0.5992   0.7442   0.7480
     0.7927   0.7948   0.9577   0.9625   1.0304   1.0356   1.1635   1.1650
     1.8293   1.8435   4.5946   4.6176   5.8279   5.8337   6.0036   6.0156
     7.5312   7.5464   8.0175   8.0460   8.1831   8.2138

          k = 0.7125 0.2567 0.9124 ( 34436 PWs)   bands (ev):

   -18.0840 -18.0828 -17.7590 -17.7585 -13.9520 -13.9508 -13.9355 -13.9354
   -13.8995 -13.8993 -13.8992 -13.8991 -13.8708 -13.8707 -12.5844 -12.5756
   -11.6602 -11.6521 -11.4305 -11.4298 -11.4031 -11.3954 -11.0744 -11.0658
   -10.7256 -10.6804 -10.0975 -10.0377  -9.4308  -9.4270  -7.5458  -7.5446
    -7.1408  -7.1351  -6.2976  -6.2735  -5.7059  -5.6519  -5.3575  -5.3563
    -4.8888  -4.8454  -4.4254  -4.3113  -4.1071  -4.1024  -3.2330  -3.1732
    -2.9707  -2.9680  -2.8662  -2.8576  -2.7040  -2.6626  -2.3603  -2.3371
    -2.1264  -2.1137  -0.2810  -0.2742  -0.2430  -0.2190  -0.0521  -0.0054
     0.1783   0.2330   0.5043   0.5113   0.5680   0.6228   0.7234   0.7643
     0.7734   0.8064   0.9645   0.9826   1.0110   1.0349   1.1607   1.1699
     1.8326   1.8368   4.5870   4.6218   5.8336   5.8558   5.9956   6.0046
     7.5201   7.5931   7.9312   8.0811   8.0995   8.2340

          k = 0.8358 0.2567 0.6142 ( 34412 PWs)   bands (ev):

   -18.0868 -18.0816 -17.7637 -17.7553 -13.9734 -13.9564 -13.9333 -13.9323
   -13.9029 -13.8996 -13.8986 -13.8957 -13.8714 -13.8701 -12.5862 -12.5739
   -11.7264 -11.5947 -11.4363 -11.4056 -11.3859 -11.3710 -11.0925 -11.0611
   -10.7461 -10.6338 -10.0618 -10.0513  -9.4235  -9.4124  -7.6018  -7.5730
    -7.1892  -7.1591  -6.2927  -6.2518  -5.7221  -5.6427  -5.2976  -5.2274
    -4.9189  -4.7905  -4.4106  -4.3208  -4.1189  -4.0776  -3.1877  -3.1724
    -3.0172  -2.9441  -2.9029  -2.8289  -2.6987  -2.6764  -2.3751  -2.3481
    -2.1559  -2.1359  -0.4840  -0.3831  -0.2233  -0.1837  -0.0173   0.0512
     0.1300   0.2040   0.3443   0.4147   0.5588   0.6276   0.6845   0.7425
     0.8193   0.8516   0.9057   0.9588   1.0179   1.1007   1.1280   1.1476
     1.5630   1.6702   5.1440   5.3727   5.8675   5.9066   6.0258   6.1875
     7.3191   7.5485   7.8058   7.9079   8.0162   8.1868

          k = 0.9591 0.2567 0.3161 ( 34417 PWs)   bands (ev):

   -18.0892 -18.0831 -17.7661 -17.7565 -14.0054 -13.9765 -13.9314 -13.9298
   -13.9060 -13.8996 -13.8978 -13.8927 -13.8720 -13.8696 -12.5887 -12.5732
   -11.7749 -11.5717 -11.4303 -11.3671 -11.3363 -11.3300 -11.1009 -11.0686
   -10.7247 -10.6133 -10.0352 -10.0195  -9.3981  -9.3838  -7.6985  -7.6655
    -7.2736  -7.2389  -6.2728  -6.2251  -5.7276  -5.6446  -5.0675  -4.9856
    -4.8697  -4.7588  -4.4016  -4.3190  -4.1113  -4.0591  -3.1684  -3.1034
    -3.0198  -2.9894  -2.8958  -2.8361  -2.7568  -2.6379  -2.4012  -2.3881
    -2.2035  -2.1897  -0.9583  -0.6726  -0.5511  -0.4683  -0.2571   0.1371
     0.2238   0.2669   0.4166   0.5283   0.5709   0.6012   0.6708   0.7235
     0.7894   0.8877   0.9281   0.9924   1.0073   1.0677   1.1149   1.1650
     1.3879   1.4662   5.7865   5.9751   6.0097   6.1418   6.8231   6.8900
     6.9692   7.3465   7.5162   7.8263   7.8390   8.1629

          k = 1.0824 0.2567 0.0179 ( 34393 PWs)   bands (ev):

   -18.0877 -18.0869 -17.7637 -17.7608 -14.0212 -13.9880 -13.9310 -13.9287
   -13.9073 -13.8996 -13.8974 -13.8915 -13.8723 -13.8694 -12.5834 -12.5800
   -11.7902 -11.5696 -11.4267 -11.3522 -11.3180 -11.2969 -11.0893 -11.0801
   -10.6843 -10.6393 -10.0244  -9.9926  -9.3760  -9.3730  -7.7403  -7.7293
    -7.3037  -7.3003  -6.2444  -6.2347  -5.7177  -5.6554  -4.9006  -4.8815
    -4.8021  -4.7244  -4.4052  -4.3065  -4.0946  -4.0677  -3.2043  -3.0557
    -3.0011  -2.9609  -2.8806  -2.8504  -2.8213  -2.6127  -2.4260  -2.4069
    -2.2382  -2.2181  -1.3809  -0.9043  -0.7249  -0.6264  -0.2852   0.1728
     0.3338   0.3911   0.4862   0.5097   0.5815   0.6154   0.6478   0.7324
     0.8189   0.8419   0.9691   1.0011   1.0466   1.0760   1.1314   1.1577
     1.3252   1.3773   5.8047   6.0426   6.1052   6.3743   6.7730   7.1767
     7.3673   7.4793   7.6555   7.7350   7.8441   8.1362

          k = 1.2057 0.2567-0.2803 ( 34384 PWs)   bands (ev):

   -18.0892 -18.0836 -17.7640 -17.7590 -14.0086 -13.9788 -13.9313 -13.9295
   -13.9063 -13.8996 -13.8977 -13.8925 -13.8721 -13.8696 -12.5932 -12.5697
   -11.7766 -11.5733 -11.4288 -11.3643 -11.3334 -11.3234 -11.0886 -11.0745
   -10.6830 -10.6608 -10.0607  -9.9837  -9.3932  -9.3814  -7.7005  -7.6843
    -7.2813  -7.2490  -6.2811  -6.2159  -5.7032  -5.6652  -5.0277  -4.9482
    -4.8422  -4.7924  -4.4240  -4.3004  -4.0911  -4.0738  -3.2013  -3.0778
    -3.0283  -2.9708  -2.8932  -2.8322  -2.7584  -2.6386  -2.4152  -2.3874
    -2.2179  -2.1880  -1.0278  -0.6909  -0.5823  -0.5570  -0.2454   0.1508
     0.2468   0.3060   0.4413   0.5020   0.5812   0.5889   0.6691   0.7038
     0.7918   0.8445   0.9739   0.9981   1.0176   1.0662   1.1176   1.1664
     1.3899   1.4399   5.7706   5.9674   6.0452   6.2048   6.9447   6.9651
     7.0255   7.2490   7.3964   7.8324   7.9554   8.2646

          k = 1.3289 0.2567-0.5784 ( 34416 PWs)   bands (ev):

   -18.0877 -18.0812 -17.7628 -17.7566 -13.9773 -13.9586 -13.9328 -13.9320
   -13.9034 -13.8996 -13.8985 -13.8952 -13.8715 -13.8700 -12.5938 -12.5672
   -11.7330 -11.5919 -11.4312 -11.3993 -11.3826 -11.3700 -11.0816 -11.0682
   -10.7033 -10.6803 -10.0986 -10.0057  -9.4224  -9.4069  -7.6083  -7.5867
    -7.2017  -7.1650  -6.3099  -6.2320  -5.6971  -5.6639  -5.2674  -5.2048
    -4.8720  -4.8364  -4.4334  -4.3027  -4.1063  -4.0821  -3.2205  -3.1228
    -3.0098  -2.9703  -2.8975  -2.8399  -2.7112  -2.6524  -2.3773  -2.3564
    -2.1577  -2.1463  -0.5115  -0.4371  -0.2566  -0.1769   0.0284   0.0762
     0.1232   0.1537   0.3322   0.4275   0.5713   0.6047   0.6973   0.7372
     0.7597   0.8231   0.9127   0.9609   1.0126   1.1032   1.1406   1.1634
     1.5594   1.6264   5.2657   5.4941   5.8535   5.9356   6.0567   6.2487
     7.3733   7.4652   7.5814   7.9596   8.0477   8.2864

          k = 0.7125 0.1344 1.2105 ( 34403 PWs)   bands (ev):

   -18.0887 -18.0802 -17.7633 -17.7561 -13.9773 -13.9586 -13.9328 -13.9320
   -13.9034 -13.8996 -13.8985 -13.8953 -13.8715 -13.8700 -12.5994 -12.5619
   -11.7325 -11.5929 -11.4250 -11.3982 -11.3832 -11.3755 -11.0793 -11.0689
   -10.6925 -10.6901 -10.1266  -9.9810  -9.4246  -9.4041  -7.6096  -7.5847
    -7.2072  -7.1595  -6.3264  -6.2177  -5.7167  -5.6417  -5.2644  -5.2023
    -4.8531  -4.8423  -4.4921  -4.2594  -4.1077  -4.0831  -3.2555  -3.0921
    -3.0028  -2.9719  -2.8986  -2.8423  -2.7133  -2.6448  -2.3900  -2.3497
    -2.1581  -2.1467  -0.5106  -0.4570  -0.2518  -0.1573   0.0462   0.1067
     0.1214   0.1404   0.3165   0.4353   0.5621   0.6226   0.6645   0.7444
     0.7639   0.7814   0.9105   0.9582   1.0197   1.1053   1.1652   1.1722
     1.5633   1.6057   5.2526   5.4912   5.8694   5.9804   6.0572   6.2347
     7.3787   7.4114   7.5751   7.9023   8.0875   8.3428

          k = 0.8358 0.1344 0.9124 ( 34435 PWs)   bands (ev):

   -18.0843 -18.0825 -17.7594 -17.7580 -13.9520 -13.9508 -13.9355 -13.9354
   -13.8995 -13.8993 -13.8992 -13.8991 -13.8708 -13.8707 -12.5874 -12.5724
   -11.6599 -11.6525 -11.4318 -11.4289 -11.4067 -11.3914 -11.0783 -11.0614
   -10.7453 -10.6561 -10.1242 -10.0158  -9.4322  -9.4259  -7.5472  -7.5431
    -7.1422  -7.1340  -6.3041  -6.2639  -5.7298  -5.6285  -5.3614  -5.3540
    -4.9051  -4.8156  -4.4824  -4.2681  -4.1090  -4.0981  -3.2508  -3.1479
    -2.9745  -2.9594  -2.8953  -2.8434  -2.7261  -2.6368  -2.3733  -2.3293
    -2.1328  -2.1086  -0.2915  -0.2817  -0.2398  -0.2018  -0.0678   0.0363
     0.1385   0.2441   0.5053   0.5069   0.5770   0.6670   0.6868   0.7519
     0.7800   0.8073   0.9646   0.9940   1.0103   1.0454   1.1461   1.1636
     1.8162   1.8396   4.5837   4.6270   5.8522   5.8974   5.9813   5.9917
     7.4700   7.6217   7.8330   7.9921   8.1636   8.2745

          k = 0.9591 0.1344 0.6142 ( 34436 PWs)   bands (ev):

   -18.0855 -18.0830 -17.7629 -17.7562 -13.9734 -13.9564 -13.9333 -13.9323
   -13.9029 -13.8996 -13.8986 -13.8957 -13.8714 -13.8701 -12.5806 -12.5795
   -11.7265 -11.5947 -11.4381 -11.4078 -11.3875 -11.3664 -11.0905 -11.0613
   -10.7527 -10.6247 -10.0930 -10.0231  -9.4204  -9.4160  -7.5990  -7.5763
    -7.1819  -7.1668  -6.2719  -6.2675  -5.7423  -5.6232  -5.3011  -5.2312
    -4.9183  -4.7769  -4.4702  -4.2741  -4.1141  -4.0768  -3.1934  -3.1522
    -3.0173  -2.9646  -2.8900  -2.8372  -2.7358  -2.6383  -2.3878  -2.3406
    -2.1557  -2.1365  -0.4833  -0.3884  -0.2130  -0.1920  -0.0097   0.0311
     0.1441   0.2070   0.3369   0.4108   0.5925   0.6350   0.6632   0.7441
     0.8116   0.8450   0.9118   0.9864   1.0484   1.0676   1.1281   1.1469
     1.5340   1.6639   5.1549   5.3763   5.8772   5.9517   5.9953   6.1969
     7.2244   7.5903   7.7064   7.9217   8.0855   8.1913

          k = 1.0824 0.1344 0.3161 ( 34395 PWs)   bands (ev):

   -18.0863 -18.0862 -17.7630 -17.7595 -14.0054 -13.9765 -13.9314 -13.9298
   -13.9060 -13.8996 -13.8978 -13.8927 -13.8720 -13.8696 -12.5859 -12.5763
   -11.7742 -11.5732 -11.4295 -11.3655 -11.3412 -11.3286 -11.0889 -11.0758
   -10.7096 -10.6323 -10.0618  -9.9916  -9.3912  -9.3904  -7.6889  -7.6762
    -7.2564  -7.2551  -6.2606  -6.2375  -5.7396  -5.6304  -5.0656  -4.9893
    -4.8444  -4.7707  -4.4638  -4.2695  -4.0990  -4.0690  -3.1796  -3.1121
    -3.0007  -2.9855  -2.8864  -2.8397  -2.7723  -2.6284  -2.4181  -2.3790
    -2.2040  -2.1893  -0.9536  -0.6702  -0.5636  -0.4717  -0.2468   0.1348
     0.2289   0.2726   0.4092   0.5200   0.5926   0.6199   0.6610   0.7122
     0.7847   0.8316   0.9795   1.0118   1.0343   1.0718   1.1125   1.1665
     1.3455   1.4509   5.7920   5.9769   6.0521   6.1547   6.8277   6.8387
     6.8884   7.4134   7.4446   7.8264   7.9551   8.1323

          k = 1.2057 0.1344 0.0179 ( 34383 PWs)   bands (ev):

   -18.0907 -18.0839 -17.7647 -17.7598 -14.0212 -13.9880 -13.9310 -13.9287
   -13.9073 -13.8996 -13.8974 -13.8915 -13.8723 -13.8694 -12.5980 -12.5659
   -11.7883 -11.5722 -11.4260 -11.3488 -11.3201 -11.2989 -11.0893 -11.0744
   -10.6691 -10.6584 -10.0630  -9.9554  -9.3807  -9.3676  -7.7417  -7.7269
    -7.3233  -7.2819  -6.2825  -6.1965  -5.7258  -5.6432  -4.8949  -4.8593
    -4.8112  -4.7288  -4.4687  -4.2602  -4.0824  -4.0760  -3.2329  -3.0884
    -2.9645  -2.9275  -2.8831  -2.8466  -2.8225  -2.6248  -2.4402  -2.3957
    -2.2630  -2.1965  -1.3646  -0.9182  -0.7266  -0.6440  -0.2693   0.1929
     0.3476   0.3715   0.4962   0.5022   0.5965   0.6262   0.6535   0.7370
     0.7569   0.8510   0.9746   1.0466   1.0586   1.0763   1.1268   1.1649
     1.2835   1.3503   5.8468   6.0096   6.1920   6.3334   6.7044   7.1894
     7.3174   7.4746   7.6369   7.6738   7.9993   8.1796

          k = 1.3289 0.1344-0.2803 ( 34399 PWs)   bands (ev):

   -18.0919 -18.0808 -17.7666 -17.7564 -14.0085 -13.9788 -13.9313 -13.9295
   -13.9063 -13.8996 -13.8977 -13.8925 -13.8721 -13.8696 -12.6047 -12.5586
   -11.7749 -11.5752 -11.4270 -11.3613 -11.3373 -11.3234 -11.0929 -11.0662
   -10.6981 -10.6466 -10.0969  -9.9518  -9.3987  -9.3750  -7.7080  -7.6744
    -7.2987  -7.2338  -6.3126  -6.1846  -5.7153  -5.6489  -5.0241  -4.9337
    -4.8482  -4.7878  -4.4879  -4.2561  -4.0981  -4.0644  -3.2395  -3.0871
    -3.0064  -2.9579  -2.8770  -2.8322  -2.7596  -2.6428  -2.4282  -2.3785
    -2.2332  -2.1754  -1.0113  -0.6947  -0.6033  -0.5705  -0.2252   0.1772
     0.2423   0.3317   0.4446   0.4861   0.5736   0.6131   0.6407   0.7241
     0.7822   0.7963   0.9558   1.0075   1.0264   1.1129   1.1182   1.1770
     1.3657   1.4170   5.8216   5.9382   6.0731   6.1871   6.9118   6.9505
     7.0518   7.2312   7.3913   7.7495   8.1185   8.2807

          k = 0.7125 0.0122 1.5087 ( 34376 PWs)   bands (ev):

   -18.0931 -18.0794 -17.7679 -17.7552 -14.0085 -13.9789 -13.9313 -13.9295
   -13.9063 -13.8996 -13.8977 -13.8925 -13.8721 -13.8696 -12.6100 -12.5536
   -11.7737 -11.5763 -11.4256 -11.3601 -11.3384 -11.3241 -11.0940 -11.0625
   -10.7065 -10.6385 -10.1139  -9.9378  -9.4012  -9.3720  -7.7114  -7.6693
    -7.3071  -7.2270  -6.3270  -6.1699  -5.7192  -5.6422  -5.0230  -4.9221
    -4.8524  -4.7842  -4.5193  -4.2383  -4.1018  -4.0590  -3.2609  -3.0895
    -2.9957  -2.9540  -2.8669  -2.8379  -2.7484  -2.6504  -2.4335  -2.3754
    -2.2404  -2.1699  -0.9998  -0.6966  -0.6134  -0.5825  -0.2130   0.1936
     0.2380   0.3627   0.4479   0.4654   0.5710   0.6043   0.6275   0.7495
     0.7725   0.7838   0.9465   1.0016   1.0271   1.1201   1.1444   1.1809
     1.3496   1.4039   5.8469   5.9404   6.0516   6.2016   6.8970   6.9734
     7.0535   7.1701   7.4430   7.6989   8.1962   8.2788

          k = 0.8358 0.0122 1.2105 ( 34467 PWs)   bands (ev):

   -18.0886 -18.0804 -17.7628 -17.7567 -13.9773 -13.9586 -13.9328 -13.9320
   -13.9034 -13.8996 -13.8985 -13.8953 -13.8715 -13.8700 -12.5999 -12.5616
   -11.7324 -11.5932 -11.4246 -11.3963 -11.3888 -11.3724 -11.0764 -11.0706
   -10.7008 -10.6812 -10.1346  -9.9746  -9.4245  -9.4044  -7.6079  -7.5865
    -7.2065  -7.1605  -6.3265  -6.2165  -5.7277  -5.6307  -5.2636  -5.2048
    -4.8514  -4.8356  -4.5172  -4.2435  -4.1038  -4.0855  -3.2590  -3.0843
    -2.9957  -2.9837  -2.8953  -2.8463  -2.7257  -2.6310  -2.3965  -2.3471
    -2.1567  -2.1485  -0.5097  -0.4634  -0.2500  -0.1525   0.0501   0.0990
     0.1308   0.1426   0.3088   0.4362   0.5661   0.6439   0.6530   0.7290
     0.7723   0.7737   0.9146   0.9569   1.0245   1.1027   1.1704   1.1756
     1.5506   1.6004   5.2548   5.4931   5.8809   6.0149   6.0339   6.2328
     7.2978   7.4173   7.6178   7.8673   8.1238   8.3481

          k = 0.9591 0.0122 0.9124 ( 34447 PWs)   bands (ev):

   -18.0844 -18.0825 -17.7597 -17.7578 -13.9520 -13.9508 -13.9355 -13.9354
   -13.8995 -13.8993 -13.8992 -13.8991 -13.8708 -13.8707 -12.5884 -12.5713
   -11.6605 -11.6518 -11.4360 -11.4324 -11.4047 -11.3864 -11.0786 -11.0595
   -10.7549 -10.6445 -10.1356 -10.0074  -9.4327  -9.4258  -7.5479  -7.5423
    -7.1431  -7.1345  -6.3031  -6.2588  -5.7400  -5.6187  -5.3674  -5.3530
    -4.9131  -4.8027  -4.5087  -4.2506  -4.1075  -4.0923  -3.2353  -3.1496
    -2.9734  -2.9474  -2.9416  -2.8104  -2.7663  -2.6107  -2.3798  -2.3260
    -2.1356  -2.1063  -0.2919  -0.2831  -0.2436  -0.2067  -0.0661   0.0795
     0.0968   0.2487   0.5085   0.5122   0.6095   0.6512   0.6787   0.7387
     0.7954   0.8130   0.9384   0.9963   1.0156   1.0619   1.1382   1.1589
     1.7995   1.8447   4.5855   4.6300   5.8715   5.9452   5.9585   5.9698
     7.4104   7.6362   7.8187   7.9183   8.2276   8.3253

          k = 1.0824 0.0122 0.6142 ( 34442 PWs)   bands (ev):

   -18.0848 -18.0838 -17.7611 -17.7579 -13.9734 -13.9564 -13.9332 -13.9323
   -13.9029 -13.8996 -13.8986 -13.8957 -13.8714 -13.8701 -12.5871 -12.5732
   -11.7261 -11.5958 -11.4366 -11.4080 -11.3894 -11.3659 -11.0833 -11.0646
   -10.7450 -10.6354 -10.1136 -10.0028  -9.4199  -9.4162  -7.5929  -7.5824
    -7.1766  -7.1726  -6.2861  -6.2522  -5.7449  -5.6184  -5.2974  -5.2366
    -4.9026  -4.7870  -4.5023  -4.2518  -4.1048  -4.0813  -3.1871  -3.1558
    -3.0083  -2.9811  -2.8842  -2.8210  -2.7762  -2.6136  -2.3942  -2.3392
    -2.1532  -2.1393  -0.4838  -0.4095  -0.1930  -0.1872   0.0076   0.0257
     0.1546   0.2003   0.3230   0.4212   0.6212   0.6247   0.6650   0.7322
     0.7945   0.8229   0.9114   1.0068   1.0141   1.0809   1.1484   1.1550
     1.5270   1.6573   5.1542   5.3802   5.8983   5.9372   6.0058   6.1969
     7.1895   7.6239   7.6263   7.8777   8.1746   8.2406

          k = 1.2057 0.0122 0.3161 ( 34377 PWs)   bands (ev):

   -18.0893 -18.0830 -17.7631 -17.7594 -14.0054 -13.9766 -13.9314 -13.9298
   -13.9060 -13.8996 -13.8978 -13.8927 -13.8720 -13.8696 -12.5974 -12.5655
   -11.7725 -11.5753 -11.4278 -11.3636 -11.3446 -11.3284 -11.0833 -11.0757
   -10.6844 -10.6630 -10.0899  -9.9638  -9.3968  -9.3838  -7.6875  -7.6765
    -7.2747  -7.2377  -6.2933  -6.2068  -5.7357  -5.6299  -5.0575  -4.9808
    -4.8186  -4.8020  -4.5014  -4.2458  -4.0830  -4.0822  -3.2169  -3.1041
    -2.9929  -2.9735  -2.8715  -2.8404  -2.7749  -2.6286  -2.4279  -2.3749
    -2.2168  -2.1781  -0.9379  -0.6715  -0.5826  -0.4856  -0.2260   0.1504
     0.2284   0.2954   0.4147   0.4972   0.5818   0.6459   0.6493   0.7014
     0.7856   0.7948   0.9875   0.9905   1.0285   1.1130   1.1345   1.1737
     1.3308   1.4343   5.8071   5.9562   6.0604   6.1624   6.8124   6.8509
     6.8972   7.3055   7.4768   7.7802   8.1272   8.1683

          k = 1.3289 0.0122 0.0179 ( 34346 PWs)   bands (ev):

   -18.0935 -18.0809 -17.7680 -17.7565 -14.0212 -13.9881 -13.9311 -13.9287
   -13.9073 -13.8996 -13.8974 -13.8915 -13.8723 -13.8694 -12.6087 -12.5556
   -11.7859 -11.5747 -11.4256 -11.3454 -11.3215 -11.3002 -11.0951 -11.0635
   -10.6974 -10.6318 -10.0911  -9.9317  -9.3864  -9.3608  -7.7514  -7.7143
    -7.3419  -7.2663  -6.3113  -6.1669  -5.7230  -5.6417  -4.8932  -4.8347
    -4.8169  -4.7367  -4.5074  -4.2394  -4.0915  -4.0612  -3.2618  -3.1093
    -2.9465  -2.9007  -2.8821  -2.8303  -2.8214  -2.6439  -2.4481  -2.3878
    -2.2804  -2.1831  -1.3419  -0.9368  -0.7312  -0.6609  -0.2520   0.2209
     0.3414   0.3874   0.4772   0.5197   0.5900   0.5913   0.6984   0.7303
     0.7327   0.8708   0.9467   1.0702   1.0819   1.0824   1.1137   1.1729
     1.2469   1.3358   5.8974   5.9870   6.2372   6.2883   6.7160   7.1065
     7.3424   7.4760   7.6081   7.6294   8.1081   8.3166

     Writing all to output data dir ./scf1.save/
 
     init_run     :      1.11s CPU      1.18s WALL (       1 calls)
     electrons    :    268.15s CPU    271.12s WALL (       1 calls)

     Called by init_run:
     wfcinit      :      0.00s CPU      0.00s WALL (       1 calls)
     wfcinit:atom :      0.05s CPU      0.05s WALL (      54 calls)
     wfcinit:wfcr :      5.61s CPU      5.70s WALL (      54 calls)
     potinit      :      0.05s CPU      0.10s WALL (       1 calls)
     hinit0       :      0.17s CPU      0.18s WALL (       1 calls)

     Called by electrons:
     c_bands      :    268.15s CPU    271.11s WALL (       1 calls)
     v_of_rho     :      0.02s CPU      0.03s WALL (       1 calls)
     v_h          :      0.00s CPU      0.00s WALL (       1 calls)
     v_xc         :      0.02s CPU      0.02s WALL (       1 calls)

     Called by c_bands:
     init_us_2    :      0.12s CPU      0.13s WALL (      54 calls)
     init_us_2:cp :      0.12s CPU      0.13s WALL (      54 calls)
     cegterg      :    225.85s CPU    228.42s WALL (     317 calls)

     Called by sum_band:

     Called by *egterg:
     cdiaghg      :     58.46s CPU     58.75s WALL (    6243 calls)
     cegterg:over :     15.78s CPU     15.96s WALL (    6189 calls)
     cegterg:upda :      7.10s CPU      7.17s WALL (    6189 calls)
     cegterg:last :      8.31s CPU      8.38s WALL (    2049 calls)
     h_psi        :    136.70s CPU    138.74s WALL (    6560 calls)
     g_psi        :      0.43s CPU      0.43s WALL (    6189 calls)

     Called by h_psi:
     h_psi:calbec :     19.13s CPU     19.67s WALL (    6560 calls)
     vloc_psi     :     99.26s CPU    100.63s WALL (    6560 calls)
     add_vuspsi   :     17.56s CPU     17.70s WALL (    6560 calls)

     General routines
     calbec       :     19.11s CPU     19.65s WALL (    6560 calls)
     fft          :      0.03s CPU      0.04s WALL (      11 calls)
     fftw         :     87.93s CPU     89.14s WALL (  408520 calls)
     davcio       :      0.01s CPU      0.13s WALL (     108 calls)
 
     Parallel routines
 
     PWSCF        :   4m33.03s CPU   4m42.35s WALL

 
   This run was terminated on:  16: 9:29  30Aug2023            

=------------------------------------------------------------------------------=
   JOB DONE.
=------------------------------------------------------------------------------=
