ANIMSTEPS  150
CRYSTAL
PRIMVEC
    7.302651462    7.366129230    3.019341984
    7.302651300   -7.366129414    3.019341930
    7.302651721   -7.366128722   -3.019342610
PRIMCOORD    1
     50   1
   Pb    16.28599  -7.36613   1.50967   0.00000  -0.00093  -0.00000
   Pb     5.62197   0.00000   1.50967   0.00000  -0.00093  -0.00000
   Br     5.81840   3.01770   1.50967  -0.00256  -0.00310   0.00000
   Br     5.81840  -3.01770   1.50967   0.00256  -0.00310  -0.00000
   Br    16.08955 -10.38383   1.50967  -0.00256  -0.00310   0.00000
   Br    16.08955  -4.34843   1.50967   0.00256  -0.00310  -0.00000
   Br    13.04167  -7.36613   1.50967   0.00000   0.02633   0.00000
   Br     8.86629   0.00000   1.50967   0.00000   0.02633   0.00000
   Br    11.88473   0.00000   4.52901   0.00000  -0.00300   0.00000
   Br    10.02322  -7.36613  -1.50967   0.00000  -0.00300   0.00000
   C     11.27323  -2.99294   1.50967  -0.00649  -0.01268   0.00000
   C     11.27323   2.99294   1.50967   0.00649  -0.01268  -0.00000
   C     10.63472  -4.37319   1.50967  -0.00649  -0.01268   0.00000
   C     10.63472 -10.35907   1.50967   0.00649  -0.01268  -0.00000
   C     13.43629  -1.80038   1.50967  -0.00595  -0.01339   0.00000
   C      6.13364  -5.56575  -1.50967   0.00595  -0.01339  -0.00000
   C      8.47166  -5.56575   1.50967  -0.00595  -0.01339   0.00000
   C     15.77431  -1.80038   4.52901   0.00595  -0.01339  -0.00000
   H     10.91393  -4.94399   0.61510  -0.00656  -0.01292   0.00015
   H      3.61128  -2.42213  -0.61510   0.00656  -0.01292   0.00015
   H     10.99403  -2.42214   0.61510  -0.00656  -0.01292  -0.00015
   H     10.99403   2.42214   2.40424   0.00656  -0.01292  -0.00015
   H     10.99403  -2.42214   2.40424  -0.00656  -0.01292   0.00015
   H     18.29668  -4.94399   3.63444   0.00656  -0.01292   0.00015
   H     10.91393  -4.94399   2.40424  -0.00656  -0.01292  -0.00015
   H     10.91393  -9.78826   0.61510   0.00656  -0.01292  -0.00015
   H     14.51691  -1.96743   1.50967  -0.00608  -0.01432   0.00000
   H      7.21426  -5.39870  -1.50967   0.00608  -0.01432  -0.00000
   H      7.39104  -5.39870   1.50967  -0.00608  -0.01432   0.00000
   H     14.69369  -1.96743   4.52901   0.00608  -0.01432  -0.00000
   H      8.78341  -6.10975   2.40806  -0.00551  -0.01331  -0.00010
   H      8.78341  -8.62251   0.61128   0.00551  -0.01331  -0.00010
   H     13.12455  -1.25638   2.40806  -0.00551  -0.01331   0.00010
   H     13.12455   1.25638   0.61128   0.00551  -0.01331   0.00010
   H     13.12455  -1.25638   0.61128  -0.00551  -0.01331  -0.00010
   H     13.12455   1.25638   2.40806   0.00551  -0.01331  -0.00010
   H      8.78341  -6.10975   0.61128  -0.00551  -0.01331   0.00010
   H      8.78341  -8.62251   2.40806   0.00551  -0.01331   0.00010
   H      8.85867  -3.70509   0.66059  -0.00670  -0.01298   0.00011
   H      8.85867   3.70509   2.35876   0.00670  -0.01298   0.00011
   H     13.04929  -3.66104   0.66059  -0.00670  -0.01298  -0.00011
   H      5.74663  -3.70509  -0.66059   0.00670  -0.01298  -0.00011
   H     13.04929  -3.66104   2.35876  -0.00670  -0.01298   0.00011
   H     13.04929 -11.07122   0.66059   0.00670  -0.01298   0.00011
   H      8.85867  -3.70509   2.35876  -0.00670  -0.01298  -0.00011
   H     16.16132  -3.66103   3.67993   0.00670  -0.01298  -0.00011
   N     12.75653  -3.12422   1.50967  -0.00656  -0.01297   0.00000
   N      5.45388  -4.24191  -1.50967   0.00656  -0.01297  -0.00000
   N      9.15142  -4.24191   1.50967  -0.00656  -0.01297   0.00000
   N     16.45407  -3.12422   4.52901   0.00656  -0.01297  -0.00000
PRIMCOORD    2
     50   1
   Pb    16.28599  -7.36613   1.50967   0.00000   0.00148  -0.00000
   Pb     5.62197   0.00000   1.50967  -0.00000  -0.00148   0.00000
   Br     5.81840   3.01770   1.50967  -0.00791  -0.00025   0.00000
   Br     5.81840  -3.01770   1.50967   0.00791  -0.00025  -0.00000
   Br    16.08955 -10.38383   1.50967   0.00791   0.00025  -0.00000
   Br    16.08955  -4.34843   1.50967  -0.00791   0.00025   0.00000
   Br    13.04167  -7.36613   1.50967   0.00000  -0.06549   0.00000
   Br     8.86629   0.00000   1.50967  -0.00000   0.06549  -0.00000
   Br    11.88473   0.00000   4.52901   0.00000   0.00232  -0.00000
   Br    10.02322  -7.36613  -1.50967  -0.00000  -0.00232   0.00000
   C     11.27323  -2.99294   1.50967  -0.00200   0.00103  -0.00000
   C     11.27323   2.99294   1.50967   0.00200   0.00103  -0.00000
   C     10.63472  -4.37319   1.50967   0.00200  -0.00103   0.00000
   C     10.63472 -10.35907   1.50967  -0.00200  -0.00103   0.00000
   C     13.43629  -1.80038   1.50967  -0.00356   0.00547  -0.00000
   C      6.13364  -5.56575  -1.50967   0.00356   0.00547  -0.00000
   C      8.47166  -5.56575   1.50967   0.00356  -0.00547   0.00000
   C     15.77431  -1.80038   4.52901  -0.00356  -0.00547   0.00000
   H     10.91393  -4.94399   0.61510   0.00345   0.00003  -0.00029
   H      3.61128  -2.42213  -0.61510  -0.00345   0.00003  -0.00029
   H     10.99403  -2.42214   0.61510  -0.00345  -0.00003  -0.00029
   H     10.99403   2.42214   2.40424   0.00345  -0.00003  -0.00029
   H     10.99403  -2.42214   2.40424  -0.00345  -0.00003   0.00029
   H     18.29668  -4.94399   3.63444   0.00345  -0.00003   0.00029
   H     10.91393  -4.94399   2.40424   0.00345   0.00003   0.00029
   H     10.91393  -9.78826   0.61510  -0.00345   0.00003   0.00029
   H     14.51691  -1.96743   1.50967  -0.00334   0.00679  -0.00000
   H      7.21426  -5.39870  -1.50967   0.00334   0.00679  -0.00000
   H      7.39104  -5.39870   1.50967   0.00334  -0.00679   0.00000
   H     14.69369  -1.96743   4.52901  -0.00334  -0.00679   0.00000
   H      8.78341  -6.10975   2.40806   0.00429  -0.00499   0.00005
   H      8.78341  -8.62251   0.61128  -0.00429  -0.00499   0.00005
   H     13.12455  -1.25638   2.40806  -0.00429   0.00499   0.00005
   H     13.12455   1.25638   0.61128   0.00429   0.00499   0.00005
   H     13.12455  -1.25638   0.61128  -0.00429   0.00499  -0.00005
   H     13.12455   1.25638   2.40806   0.00429   0.00499  -0.00005
   H      8.78341  -6.10975   0.61128   0.00429  -0.00499  -0.00005
   H      8.78341  -8.62251   2.40806  -0.00429  -0.00499  -0.00005
   H      8.85867  -3.70509   0.66059   0.00081  -0.00500  -0.00006
   H      8.85867   3.70509   2.35876  -0.00081  -0.00500  -0.00006
   H     13.04929  -3.66104   0.66059  -0.00081   0.00500  -0.00006
   H      5.74663  -3.70509  -0.66059   0.00081   0.00500  -0.00006
   H     13.04929  -3.66104   2.35876  -0.00081   0.00500   0.00006
   H     13.04929 -11.07122   0.66059   0.00081   0.00500   0.00006
   H      8.85867  -3.70509   2.35876   0.00081  -0.00500   0.00006
   H     16.16132  -3.66103   3.67993  -0.00081  -0.00500   0.00006
   N     12.75653  -3.12422   1.50967  -0.00166   0.00443   0.00000
   N      5.45388  -4.24191  -1.50967   0.00166   0.00443  -0.00000
   N      9.15142  -4.24191   1.50967   0.00166  -0.00443  -0.00000
   N     16.45407  -3.12422   4.52901  -0.00166  -0.00443   0.00000
PRIMCOORD    3
     50   1
   Pb    16.28599  -7.36613   1.50967  -0.00309  -0.00000   0.00000
   Pb     5.62197   0.00000   1.50967  -0.00309  -0.00000   0.00000
   Br     5.81840   3.01770   1.50967   0.00535   0.00104   0.00000
   Br     5.81840  -3.01770   1.50967   0.00535  -0.00104  -0.00000
   Br    16.08955 -10.38383   1.50967   0.00535   0.00104   0.00000
   Br    16.08955  -4.34843   1.50967   0.00535  -0.00104  -0.00000
   Br    13.04167  -7.36613   1.50967  -0.01499   0.00000   0.00000
   Br     8.86629   0.00000   1.50967  -0.01499   0.00000   0.00000
   Br    11.88473   0.00000   4.52901  -0.00348  -0.00000  -0.00000
   Br    10.02322  -7.36613  -1.50967  -0.00348  -0.00000  -0.00000
   C     11.27323  -2.99294   1.50967   0.01345   0.00706   0.00000
   C     11.27323   2.99294   1.50967   0.01345  -0.00706  -0.00000
   C     10.63472  -4.37319   1.50967   0.01345   0.00706   0.00000
   C     10.63472 -10.35907   1.50967   0.01345  -0.00706  -0.00000
   C     13.43629  -1.80038   1.50967   0.01498   0.00481  -0.00000
   C      6.13364  -5.56575  -1.50967   0.01498  -0.00481  -0.00000
   C      8.47166  -5.56575   1.50967   0.01498   0.00481  -0.00000
   C     15.77431  -1.80038   4.52901   0.01498  -0.00481  -0.00000
   H     10.91393  -4.94399   0.61510   0.01413   0.00726   0.00013
   H      3.61128  -2.42213  -0.61510   0.01413  -0.00726  -0.00013
   H     10.99403  -2.42214   0.61510   0.01413   0.00726  -0.00013
   H     10.99403   2.42214   2.40424   0.01413  -0.00726   0.00013
   H     10.99403  -2.42214   2.40424   0.01413   0.00726   0.00013
   H     18.29668  -4.94399   3.63444   0.01413  -0.00726  -0.00013
   H     10.91393  -4.94399   2.40424   0.01413   0.00726  -0.00013
   H     10.91393  -9.78826   0.61510   0.01413  -0.00726   0.00013
   H     14.51691  -1.96743   1.50967   0.01486   0.00398  -0.00000
   H      7.21426  -5.39870  -1.50967   0.01486  -0.00398  -0.00000
   H      7.39104  -5.39870   1.50967   0.01486   0.00398  -0.00000
   H     14.69369  -1.96743   4.52901   0.01486  -0.00398  -0.00000
   H      8.78341  -6.10975   2.40806   0.01553   0.00505   0.00000
   H      8.78341  -8.62251   0.61128   0.01553  -0.00505  -0.00000
   H     13.12455  -1.25638   2.40806   0.01553   0.00505  -0.00000
   H     13.12455   1.25638   0.61128   0.01553  -0.00505   0.00000
   H     13.12455  -1.25638   0.61128   0.01553   0.00505   0.00000
   H     13.12455   1.25638   2.40806   0.01553  -0.00505  -0.00000
   H      8.78341  -6.10975   0.61128   0.01553   0.00505  -0.00000
   H      8.78341  -8.62251   2.40806   0.01553  -0.00505   0.00000
   H      8.85867  -3.70509   0.66059   0.01279   0.00516  -0.00005
   H      8.85867   3.70509   2.35876   0.01279  -0.00516   0.00005
   H     13.04929  -3.66104   0.66059   0.01279   0.00516   0.00005
   H      5.74663  -3.70509  -0.66059   0.01279  -0.00516  -0.00005
   H     13.04929  -3.66104   2.35876   0.01279   0.00516  -0.00005
   H     13.04929 -11.07122   0.66059   0.01279  -0.00516   0.00005
   H      8.85867  -3.70509   2.35876   0.01279   0.00516   0.00005
   H     16.16132  -3.66103   3.67993   0.01279  -0.00516  -0.00005
   N     12.75653  -3.12422   1.50967   0.01346   0.00566   0.00000
   N      5.45388  -4.24191  -1.50967   0.01346  -0.00566  -0.00000
   N      9.15142  -4.24191   1.50967   0.01346   0.00566   0.00000
   N     16.45407  -3.12422   4.52901   0.01346  -0.00566  -0.00000
PRIMCOORD    4
     50   1
   Pb    16.28599  -7.36613   1.50967   0.00029  -0.00010   0.01414
   Pb     5.62197   0.00000   1.50967   0.00029  -0.00010   0.01414
   Br     5.81840   3.01770   1.50967   0.00029  -0.00010   0.01414
   Br     5.81840  -3.01770   1.50967   0.00029  -0.00010   0.01414
   Br    16.08955 -10.38383   1.50967   0.00029  -0.00010   0.01414
   Br    16.08955  -4.34843   1.50967   0.00029  -0.00010   0.01414
   Br    13.04167  -7.36613   1.50967   0.00029  -0.00010   0.01414
   Br     8.86629   0.00000   1.50967   0.00029  -0.00010   0.01414
   Br    11.88473   0.00000   4.52901   0.00029  -0.00010   0.01414
   Br    10.02322  -7.36613  -1.50967   0.00029  -0.00010   0.01414
   C     11.27323  -2.99294   1.50967   0.00029  -0.00010   0.01414
   C     11.27323   2.99294   1.50967   0.00029  -0.00010   0.01414
   C     10.63472  -4.37319   1.50967   0.00029  -0.00010   0.01414
   C     10.63472 -10.35907   1.50967   0.00029  -0.00010   0.01414
   C     13.43629  -1.80038   1.50967   0.00029  -0.00010   0.01414
   C      6.13364  -5.56575  -1.50967   0.00029  -0.00010   0.01414
   C      8.47166  -5.56575   1.50967   0.00029  -0.00010   0.01414
   C     15.77431  -1.80038   4.52901   0.00029  -0.00010   0.01414
   H     10.91393  -4.94399   0.61510   0.00029  -0.00010   0.01414
   H      3.61128  -2.42213  -0.61510   0.00029  -0.00010   0.01414
   H     10.99403  -2.42214   0.61510   0.00029  -0.00010   0.01414
   H     10.99403   2.42214   2.40424   0.00029  -0.00010   0.01414
   H     10.99403  -2.42214   2.40424   0.00029  -0.00010   0.01414
   H     18.29668  -4.94399   3.63444   0.00029  -0.00010   0.01414
   H     10.91393  -4.94399   2.40424   0.00029  -0.00010   0.01414
   H     10.91393  -9.78826   0.61510   0.00029  -0.00010   0.01414
   H     14.51691  -1.96743   1.50967   0.00029  -0.00010   0.01414
   H      7.21426  -5.39870  -1.50967   0.00029  -0.00010   0.01414
   H      7.39104  -5.39870   1.50967   0.00029  -0.00010   0.01414
   H     14.69369  -1.96743   4.52901   0.00029  -0.00010   0.01414
   H      8.78341  -6.10975   2.40806   0.00029  -0.00010   0.01414
   H      8.78341  -8.62251   0.61128   0.00029  -0.00010   0.01414
   H     13.12455  -1.25638   2.40806   0.00029  -0.00010   0.01414
   H     13.12455   1.25638   0.61128   0.00029  -0.00010   0.01414
   H     13.12455  -1.25638   0.61128   0.00029  -0.00010   0.01414
   H     13.12455   1.25638   2.40806   0.00029  -0.00010   0.01414
   H      8.78341  -6.10975   0.61128   0.00029  -0.00010   0.01414
   H      8.78341  -8.62251   2.40806   0.00029  -0.00010   0.01414
   H      8.85867  -3.70509   0.66059   0.00029  -0.00010   0.01414
   H      8.85867   3.70509   2.35876   0.00029  -0.00010   0.01414
   H     13.04929  -3.66104   0.66059   0.00029  -0.00010   0.01414
   H      5.74663  -3.70509  -0.66059   0.00029  -0.00010   0.01414
   H     13.04929  -3.66104   2.35876   0.00029  -0.00010   0.01414
   H     13.04929 -11.07122   0.66059   0.00029  -0.00010   0.01414
   H      8.85867  -3.70509   2.35876   0.00029  -0.00010   0.01414
   H     16.16132  -3.66103   3.67993   0.00029  -0.00010   0.01414
   N     12.75653  -3.12422   1.50967   0.00029  -0.00010   0.01414
   N      5.45388  -4.24191  -1.50967   0.00029  -0.00010   0.01414
   N      9.15142  -4.24191   1.50967   0.00029  -0.00010   0.01414
   N     16.45407  -3.12422   4.52901   0.00029  -0.00010   0.01414
PRIMCOORD    5
     50   1
   Pb    16.28599  -7.36613   1.50967  -0.01357   0.00396   0.00031
   Pb     5.62197   0.00000   1.50967  -0.01357   0.00396   0.00031
   Br     5.81840   3.01770   1.50967  -0.01357   0.00396   0.00031
   Br     5.81840  -3.01770   1.50967  -0.01357   0.00396   0.00031
   Br    16.08955 -10.38383   1.50967  -0.01357   0.00396   0.00031
   Br    16.08955  -4.34843   1.50967  -0.01357   0.00396   0.00031
   Br    13.04167  -7.36613   1.50967  -0.01357   0.00396   0.00031
   Br     8.86629   0.00000   1.50967  -0.01357   0.00396   0.00031
   Br    11.88473   0.00000   4.52901  -0.01357   0.00396   0.00031
   Br    10.02322  -7.36613  -1.50967  -0.01357   0.00396   0.00031
   C     11.27323  -2.99294   1.50967  -0.01357   0.00396   0.00031
   C     11.27323   2.99294   1.50967  -0.01357   0.00396   0.00031
   C     10.63472  -4.37319   1.50967  -0.01357   0.00396   0.00031
   C     10.63472 -10.35907   1.50967  -0.01357   0.00396   0.00031
   C     13.43629  -1.80038   1.50967  -0.01357   0.00396   0.00031
   C      6.13364  -5.56575  -1.50967  -0.01357   0.00396   0.00031
   C      8.47166  -5.56575   1.50967  -0.01357   0.00396   0.00031
   C     15.77431  -1.80038   4.52901  -0.01357   0.00396   0.00031
   H     10.91393  -4.94399   0.61510  -0.01357   0.00396   0.00031
   H      3.61128  -2.42213  -0.61510  -0.01357   0.00396   0.00031
   H     10.99403  -2.42214   0.61510  -0.01357   0.00396   0.00031
   H     10.99403   2.42214   2.40424  -0.01357   0.00396   0.00031
   H     10.99403  -2.42214   2.40424  -0.01357   0.00396   0.00031
   H     18.29668  -4.94399   3.63444  -0.01357   0.00396   0.00031
   H     10.91393  -4.94399   2.40424  -0.01357   0.00396   0.00031
   H     10.91393  -9.78826   0.61510  -0.01357   0.00396   0.00031
   H     14.51691  -1.96743   1.50967  -0.01357   0.00396   0.00031
   H      7.21426  -5.39870  -1.50967  -0.01357   0.00396   0.00031
   H      7.39104  -5.39870   1.50967  -0.01357   0.00396   0.00031
   H     14.69369  -1.96743   4.52901  -0.01357   0.00396   0.00031
   H      8.78341  -6.10975   2.40806  -0.01357   0.00396   0.00031
   H      8.78341  -8.62251   0.61128  -0.01357   0.00396   0.00031
   H     13.12455  -1.25638   2.40806  -0.01357   0.00396   0.00031
   H     13.12455   1.25638   0.61128  -0.01357   0.00396   0.00031
   H     13.12455  -1.25638   0.61128  -0.01357   0.00396   0.00031
   H     13.12455   1.25638   2.40806  -0.01357   0.00396   0.00031
   H      8.78341  -6.10975   0.61128  -0.01357   0.00396   0.00031
   H      8.78341  -8.62251   2.40806  -0.01357   0.00396   0.00031
   H      8.85867  -3.70509   0.66059  -0.01357   0.00396   0.00031
   H      8.85867   3.70509   2.35876  -0.01357   0.00396   0.00031
   H     13.04929  -3.66104   0.66059  -0.01357   0.00396   0.00031
   H      5.74663  -3.70509  -0.66059  -0.01357   0.00396   0.00031
   H     13.04929  -3.66104   2.35876  -0.01357   0.00396   0.00031
   H     13.04929 -11.07122   0.66059  -0.01357   0.00396   0.00031
   H      8.85867  -3.70509   2.35876  -0.01357   0.00396   0.00031
   H     16.16132  -3.66103   3.67993  -0.01357   0.00396   0.00031
   N     12.75653  -3.12422   1.50967  -0.01357   0.00396   0.00031
   N      5.45388  -4.24191  -1.50967  -0.01357   0.00396   0.00031
   N      9.15142  -4.24191   1.50967  -0.01357   0.00396   0.00031
   N     16.45407  -3.12422   4.52901  -0.01357   0.00396   0.00031
PRIMCOORD    6
     50   1
   Pb    16.28599  -7.36613   1.50967   0.00396   0.01358   0.00001
   Pb     5.62197   0.00000   1.50967   0.00396   0.01358   0.00001
   Br     5.81840   3.01770   1.50967   0.00396   0.01358   0.00001
   Br     5.81840  -3.01770   1.50967   0.00396   0.01358   0.00001
   Br    16.08955 -10.38383   1.50967   0.00396   0.01358   0.00001
   Br    16.08955  -4.34843   1.50967   0.00396   0.01358   0.00001
   Br    13.04167  -7.36613   1.50967   0.00396   0.01358   0.00001
   Br     8.86629   0.00000   1.50967   0.00396   0.01358   0.00001
   Br    11.88473   0.00000   4.52901   0.00396   0.01358   0.00001
   Br    10.02322  -7.36613  -1.50967   0.00396   0.01358   0.00001
   C     11.27323  -2.99294   1.50967   0.00396   0.01358   0.00001
   C     11.27323   2.99294   1.50967   0.00396   0.01358   0.00001
   C     10.63472  -4.37319   1.50967   0.00396   0.01358   0.00001
   C     10.63472 -10.35907   1.50967   0.00396   0.01358   0.00001
   C     13.43629  -1.80038   1.50967   0.00396   0.01358   0.00001
   C      6.13364  -5.56575  -1.50967   0.00396   0.01358   0.00001
   C      8.47166  -5.56575   1.50967   0.00396   0.01358   0.00001
   C     15.77431  -1.80038   4.52901   0.00396   0.01358   0.00001
   H     10.91393  -4.94399   0.61510   0.00396   0.01358   0.00001
   H      3.61128  -2.42213  -0.61510   0.00396   0.01358   0.00001
   H     10.99403  -2.42214   0.61510   0.00396   0.01358   0.00001
   H     10.99403   2.42214   2.40424   0.00396   0.01358   0.00001
   H     10.99403  -2.42214   2.40424   0.00396   0.01358   0.00001
   H     18.29668  -4.94399   3.63444   0.00396   0.01358   0.00001
   H     10.91393  -4.94399   2.40424   0.00396   0.01358   0.00001
   H     10.91393  -9.78826   0.61510   0.00396   0.01358   0.00001
   H     14.51691  -1.96743   1.50967   0.00396   0.01358   0.00001
   H      7.21426  -5.39870  -1.50967   0.00396   0.01358   0.00001
   H      7.39104  -5.39870   1.50967   0.00396   0.01358   0.00001
   H     14.69369  -1.96743   4.52901   0.00396   0.01358   0.00001
   H      8.78341  -6.10975   2.40806   0.00396   0.01358   0.00001
   H      8.78341  -8.62251   0.61128   0.00396   0.01358   0.00001
   H     13.12455  -1.25638   2.40806   0.00396   0.01358   0.00001
   H     13.12455   1.25638   0.61128   0.00396   0.01358   0.00001
   H     13.12455  -1.25638   0.61128   0.00396   0.01358   0.00001
   H     13.12455   1.25638   2.40806   0.00396   0.01358   0.00001
   H      8.78341  -6.10975   0.61128   0.00396   0.01358   0.00001
   H      8.78341  -8.62251   2.40806   0.00396   0.01358   0.00001
   H      8.85867  -3.70509   0.66059   0.00396   0.01358   0.00001
   H      8.85867   3.70509   2.35876   0.00396   0.01358   0.00001
   H     13.04929  -3.66104   0.66059   0.00396   0.01358   0.00001
   H      5.74663  -3.70509  -0.66059   0.00396   0.01358   0.00001
   H     13.04929  -3.66104   2.35876   0.00396   0.01358   0.00001
   H     13.04929 -11.07122   0.66059   0.00396   0.01358   0.00001
   H      8.85867  -3.70509   2.35876   0.00396   0.01358   0.00001
   H     16.16132  -3.66103   3.67993   0.00396   0.01358   0.00001
   N     12.75653  -3.12422   1.50967   0.00396   0.01358   0.00001
   N      5.45388  -4.24191  -1.50967   0.00396   0.01358   0.00001
   N      9.15142  -4.24191   1.50967   0.00396   0.01358   0.00001
   N     16.45407  -3.12422   4.52901   0.00396   0.01358   0.00001
PRIMCOORD    7
     50   1
   Pb    16.28599  -7.36613   1.50967   0.02110  -0.00000  -0.00000
   Pb     5.62197   0.00000   1.50967  -0.02110   0.00000   0.00000
   Br     5.81840   3.01770   1.50967  -0.00900  -0.00119  -0.00000
   Br     5.81840  -3.01770   1.50967  -0.00900   0.00119  -0.00000
   Br    16.08955 -10.38383   1.50967   0.00900   0.00119   0.00000
   Br    16.08955  -4.34843   1.50967   0.00900  -0.00119   0.00000
   Br    13.04167  -7.36613   1.50967   0.05734   0.00000   0.00000
   Br     8.86629   0.00000   1.50967  -0.05734  -0.00000  -0.00000
   Br    11.88473   0.00000   4.52901   0.02557   0.00000   0.00000
   Br    10.02322  -7.36613  -1.50967  -0.02557  -0.00000  -0.00000
   C     11.27323  -2.99294   1.50967   0.00115  -0.00041   0.00000
   C     11.27323   2.99294   1.50967   0.00115   0.00041   0.00000
   C     10.63472  -4.37319   1.50967  -0.00115   0.00041  -0.00000
   C     10.63472 -10.35907   1.50967  -0.00115  -0.00041  -0.00000
   C     13.43629  -1.80038   1.50967   0.00398  -0.00433   0.00000
   C      6.13364  -5.56575  -1.50967   0.00398   0.00433   0.00000
   C      8.47166  -5.56575   1.50967  -0.00398   0.00433  -0.00000
   C     15.77431  -1.80038   4.52901  -0.00398  -0.00433  -0.00000
   H     10.91393  -4.94399   0.61510  -0.00203   0.00042  -0.00031
   H      3.61128  -2.42213  -0.61510  -0.00203  -0.00042   0.00031
   H     10.99403  -2.42214   0.61510   0.00203  -0.00042  -0.00031
   H     10.99403   2.42214   2.40424   0.00203   0.00042   0.00031
   H     10.99403  -2.42214   2.40424   0.00203  -0.00042   0.00031
   H     18.29668  -4.94399   3.63444   0.00203   0.00042  -0.00031
   H     10.91393  -4.94399   2.40424  -0.00203   0.00042   0.00031
   H     10.91393  -9.78826   0.61510  -0.00203  -0.00042  -0.00031
   H     14.51691  -1.96743   1.50967   0.00358  -0.00674   0.00000
   H      7.21426  -5.39870  -1.50967   0.00358   0.00674   0.00000
   H      7.39104  -5.39870   1.50967  -0.00358   0.00674  -0.00000
   H     14.69369  -1.96743   4.52901  -0.00358  -0.00674  -0.00000
   H      8.78341  -6.10975   2.40806  -0.00561   0.00360   0.00012
   H      8.78341  -8.62251   0.61128  -0.00561  -0.00360  -0.00012
   H     13.12455  -1.25638   2.40806   0.00561  -0.00360   0.00012
   H     13.12455   1.25638   0.61128   0.00561   0.00360  -0.00012
   H     13.12455  -1.25638   0.61128   0.00561  -0.00360  -0.00012
   H     13.12455   1.25638   2.40806   0.00561   0.00360   0.00012
   H      8.78341  -6.10975   0.61128  -0.00561   0.00360  -0.00012
   H      8.78341  -8.62251   2.40806  -0.00561  -0.00360   0.00012
   H      8.85867  -3.70509   0.66059   0.00045   0.00336  -0.00015
   H      8.85867   3.70509   2.35876   0.00045  -0.00336   0.00015
   H     13.04929  -3.66104   0.66059  -0.00045  -0.00336  -0.00015
   H      5.74663  -3.70509  -0.66059  -0.00045   0.00336   0.00015
   H     13.04929  -3.66104   2.35876  -0.00045  -0.00336   0.00015
   H     13.04929 -11.07122   0.66059  -0.00045   0.00336  -0.00015
   H      8.85867  -3.70509   2.35876   0.00045   0.00336   0.00015
   H     16.16132  -3.66103   3.67993   0.00045  -0.00336  -0.00015
   N     12.75653  -3.12422   1.50967   0.00094  -0.00284  -0.00000
   N      5.45388  -4.24191  -1.50967   0.00094   0.00284  -0.00000
   N      9.15142  -4.24191   1.50967  -0.00094   0.00284   0.00000
   N     16.45407  -3.12422   4.52901  -0.00094  -0.00284   0.00000
PRIMCOORD    8
     50   1
   Pb    16.28599  -7.36613   1.50967  -0.00000   0.00000  -0.05581
   Pb     5.62197   0.00000   1.50967   0.00000  -0.00000   0.05581
   Br     5.81840   3.01770   1.50967  -0.00000  -0.00000   0.00749
   Br     5.81840  -3.01770   1.50967   0.00000  -0.00000   0.00749
   Br    16.08955 -10.38383   1.50967   0.00000   0.00000  -0.00749
   Br    16.08955  -4.34843   1.50967  -0.00000   0.00000  -0.00749
   Br    13.04167  -7.36613   1.50967  -0.00000   0.00000   0.02658
   Br     8.86629   0.00000   1.50967   0.00000  -0.00000  -0.02658
   Br    11.88473   0.00000   4.52901  -0.00000   0.00000  -0.01856
   Br    10.02322  -7.36613  -1.50967   0.00000  -0.00000   0.01856
   C     11.27323  -2.99294   1.50967  -0.00000   0.00000  -0.00150
   C     11.27323   2.99294   1.50967   0.00000   0.00000  -0.00150
   C     10.63472  -4.37319   1.50967   0.00000  -0.00000   0.00150
   C     10.63472 -10.35907   1.50967  -0.00000  -0.00000   0.00150
   C     13.43629  -1.80038   1.50967  -0.00000   0.00000  -0.00407
   C      6.13364  -5.56575  -1.50967   0.00000   0.00000  -0.00407
   C      8.47166  -5.56575   1.50967   0.00000  -0.00000   0.00407
   C     15.77431  -1.80038   4.52901  -0.00000  -0.00000   0.00407
   H     10.91393  -4.94399   0.61510   0.00226  -0.00283   0.00408
   H      3.61128  -2.42213  -0.61510  -0.00226  -0.00283   0.00408
   H     10.99403  -2.42214   0.61510   0.00226  -0.00283  -0.00408
   H     10.99403   2.42214   2.40424  -0.00226  -0.00283  -0.00408
   H     10.99403  -2.42214   2.40424  -0.00226   0.00283  -0.00408
   H     18.29668  -4.94399   3.63444   0.00226   0.00283  -0.00408
   H     10.91393  -4.94399   2.40424  -0.00226   0.00283   0.00408
   H     10.91393  -9.78826   0.61510   0.00226   0.00283   0.00408
   H     14.51691  -1.96743   1.50967  -0.00000   0.00000  -0.00322
   H      7.21426  -5.39870  -1.50967   0.00000   0.00000  -0.00322
   H      7.39104  -5.39870   1.50967   0.00000  -0.00000   0.00322
   H     14.69369  -1.96743   4.52901  -0.00000  -0.00000   0.00322
   H      8.78341  -6.10975   2.40806  -0.00025   0.00507   0.00725
   H      8.78341  -8.62251   0.61128   0.00025   0.00507   0.00725
   H     13.12455  -1.25638   2.40806  -0.00025   0.00507  -0.00725
   H     13.12455   1.25638   0.61128   0.00025   0.00507  -0.00725
   H     13.12455  -1.25638   0.61128   0.00025  -0.00507  -0.00725
   H     13.12455   1.25638   2.40806  -0.00025  -0.00507  -0.00725
   H      8.78341  -6.10975   0.61128   0.00025  -0.00507   0.00725
   H      8.78341  -8.62251   2.40806  -0.00025  -0.00507   0.00725
   H      8.85867  -3.70509   0.66059   0.00171  -0.00395  -0.00591
   H      8.85867   3.70509   2.35876  -0.00171  -0.00395  -0.00591
   H     13.04929  -3.66104   0.66059   0.00171  -0.00395   0.00591
   H      5.74663  -3.70509  -0.66059  -0.00171  -0.00395   0.00591
   H     13.04929  -3.66104   2.35876  -0.00171   0.00395   0.00591
   H     13.04929 -11.07122   0.66059   0.00171   0.00395   0.00591
   H      8.85867  -3.70509   2.35876  -0.00171   0.00395  -0.00591
   H     16.16132  -3.66103   3.67993   0.00171   0.00395  -0.00591
   N     12.75653  -3.12422   1.50967  -0.00000   0.00000   0.00294
   N      5.45388  -4.24191  -1.50967   0.00000   0.00000   0.00294
   N      9.15142  -4.24191   1.50967   0.00000  -0.00000  -0.00294
   N     16.45407  -3.12422   4.52901  -0.00000  -0.00000  -0.00294
PRIMCOORD    9
     50   1
   Pb    16.28599  -7.36613   1.50967   0.00000  -0.00000   0.01903
   Pb     5.62197   0.00000   1.50967   0.00000  -0.00000   0.01903
   Br     5.81840   3.01770   1.50967  -0.00000   0.00000  -0.01515
   Br     5.81840  -3.01770   1.50967  -0.00000   0.00000  -0.01515
   Br    16.08955 -10.38383   1.50967  -0.00000   0.00000  -0.01515
   Br    16.08955  -4.34843   1.50967  -0.00000   0.00000  -0.01515
   Br    13.04167  -7.36613   1.50967   0.00000   0.00000   0.00416
   Br     8.86629   0.00000   1.50967   0.00000   0.00000   0.00416
   Br    11.88473   0.00000   4.52901   0.00000  -0.00000  -0.00718
   Br    10.02322  -7.36613  -1.50967   0.00000  -0.00000  -0.00718
   C     11.27323  -2.99294   1.50967   0.00000   0.00000  -0.01612
   C     11.27323   2.99294   1.50967  -0.00000   0.00000  -0.01612
   C     10.63472  -4.37319   1.50967   0.00000   0.00000  -0.01612
   C     10.63472 -10.35907   1.50967  -0.00000   0.00000  -0.01612
   C     13.43629  -1.80038   1.50967   0.00000   0.00000  -0.01134
   C      6.13364  -5.56575  -1.50967  -0.00000   0.00000  -0.01134
   C      8.47166  -5.56575   1.50967   0.00000   0.00000  -0.01134
   C     15.77431  -1.80038   4.52901  -0.00000   0.00000  -0.01134
   H     10.91393  -4.94399   0.61510  -0.00089   0.00046  -0.01668
   H      3.61128  -2.42213  -0.61510   0.00088   0.00046  -0.01668
   H     10.99403  -2.42214   0.61510   0.00089  -0.00046  -0.01668
   H     10.99403   2.42214   2.40424  -0.00089  -0.00046  -0.01668
   H     10.99403  -2.42214   2.40424  -0.00089   0.00046  -0.01668
   H     18.29668  -4.94399   3.63444   0.00088   0.00046  -0.01668
   H     10.91393  -4.94399   2.40424   0.00089  -0.00046  -0.01668
   H     10.91393  -9.78826   0.61510  -0.00089  -0.00046  -0.01668
   H     14.51691  -1.96743   1.50967   0.00000   0.00000  -0.01123
   H      7.21426  -5.39870  -1.50967  -0.00000   0.00000  -0.01123
   H      7.39104  -5.39870   1.50967   0.00000   0.00000  -0.01123
   H     14.69369  -1.96743   4.52901  -0.00000   0.00000  -0.01123
   H      8.78341  -6.10975   2.40806   0.00043   0.00229  -0.01011
   H      8.78341  -8.62251   0.61128  -0.00043   0.00229  -0.01011
   H     13.12455  -1.25638   2.40806  -0.00043  -0.00229  -0.01011
   H     13.12455   1.25638   0.61128   0.00043  -0.00229  -0.01011
   H     13.12455  -1.25638   0.61128   0.00043   0.00229  -0.01011