ANIMSTEPS  150
CRYSTAL
PRIMVEC
    7.298596017    7.368451347    3.019468303
    7.298596017   -7.368451347    3.019468303
    7.298596017   -7.368451347   -3.019468303
PRIMCOORD    1
     50   1
Pb	16.27798	-7.36845	1.50973	-0.635686361	-0.004927631	0.011218124
Pb	5.61781	0	1.50973	0.676538412	-0.008768928	-0.010603187
Br	5.81418	3.01766	1.50973	-0.042106249	0.218050312	-0.00551893
Br	5.81418	-3.01766	1.50973	-0.041247631	-0.246980923	0.001069171
Br	16.0816	-10.38611	1.50973	0.026240118	-0.296582355	0.010174918
Br	16.0816	-4.3508	1.50973	0.036271175	0.279994036	0.000883199
Br	13.03357	-7.36845	1.50973	-0.213884749	0.009308713	-0.017651555
Br	8.86222	0	1.50973	0.15314014	0.004889916	-0.013191058
Br	11.8808	0	4.5292	0.467113294	0.014516828	-0.007782647
Br	10.01498	-7.36845	-1.50973	-0.407599607	-0.000169984	0.012253704
C	11.2672	-2.99412	1.50973	0.030186202	-0.008302183	0.003197712
C	11.2672	2.99412	1.50973	0.028093119	0.007564822	0.002081345
C	10.62859	-4.37433	1.50973	-0.035029726	0.011360348	-0.001781048
C	10.62859	-10.36257	1.50973	-0.034496975	-0.011015882	-0.003011358
C	13.43034	-1.80159	1.50973	-0.029400712	-0.040859234	-0.007059332
C	6.13174	-5.56686	-1.50973	-0.034449297	0.045564858	0.003594924
C	8.46545	-5.56686	1.50973	0.037230436	0.05315451	-0.000534815
C	15.76404	-1.80159	4.5292	0.034826058	-0.053039521	0.003730167
H	10.90777	-4.94511	0.61516	0.018001831	0.007473557	0.017573619
H	3.60917	-2.42334	-0.61516	0.017476979	-0.007089469	-0.015015841
H	10.98802	-2.42334	0.61516	-0.019052153	-0.00631572	0.014389532
H	10.98802	2.42334	2.40431	-0.019338735	0.005927188	-0.016424888
H	10.98802	-2.42334	2.40431	-0.019680371	-0.005903873	-0.016569566
H	18.28661	-4.94511	3.63462	-0.018903384	0.005574817	0.014244766
H	10.90777	-4.94511	2.40431	0.017360004	0.006530277	-0.015368391
H	10.90777	-9.79179	0.61516	0.017958362	-0.006149797	0.017144148
H	14.51096	-1.96862	1.50973	-0.002294795	-0.009145353	-0.002002989
H	7.21237	-5.39983	-1.50973	0.002824303	0.010294598	-0.005432776
H	7.38483	-5.39983	1.50973	0.000944934	0.002174038	0.004460988
H	14.68342	-1.96862	4.5292	-0.000796026	-0.001509317	0.002467346
H	8.77711	-6.11091	2.40811	-0.016259693	-0.004612196	-0.010326234
H	8.77711	-8.62599	0.61136	-0.012995864	0.006076674	0.010737711
H	13.11868	-1.25754	2.40811	0.009317133	0.007639209	-0.007726459
H	13.11868	1.25754	0.61136	0.011698587	-0.007972581	0.006474262
H	13.11868	-1.25754	0.61136	0.012145419	0.003576421	0.010732267
H	13.11868	1.25754	2.40811	0.007330826	-0.005939475	-0.011267423
H	8.77711	-6.11091	0.61136	-0.012149165	-0.003234676	0.014508906
H	8.77711	-8.62599	2.40811	-0.015823775	0.002723261	-0.0127534
H	8.85259	-3.70617	0.6607	-0.002325442	0.011404712	-0.052240486
H	8.85259	3.70617	2.35877	-0.003377851	-0.011155821	0.049395298
H	13.04319	-3.66228	0.6607	0.004783438	-0.00784191	-0.030630743
H	5.7446	-3.70617	-0.6607	0.005383949	0.008322076	0.033382325
H	13.04319	-3.66228	2.35877	0.003709726	-0.00777306	0.03166058
H	13.04319	-11.07462	0.6607	0.006066306	0.007955748	-0.033031887
H	8.85259	-3.70617	2.35877	-0.002568991	0.011909396	0.05219256
H	16.15119	-3.66228	3.68016	-0.002286483	-0.011858878	-0.051482539
N	12.75049	-3.12541	1.50973	0.003738661	0.011427669	0.000761924
N	5.45189	-4.24304	-1.50973	0.006741761	-0.019196175	0.000956323
N	9.1453	-4.24304	1.50973	7.06E-05	-0.023655142	-0.000773751
N	16.4439	-3.12541	4.5292	-1.22E-07	0.022317522	-1.74E-05
PRIMCOORD    2
     50   1
   Pb    16.27798  -7.36845   1.50973  -0.00000  -0.00045  -0.00000
   Pb     5.61781   0.00000   1.50973  -0.00000  -0.00045   0.00000
   Br     5.81418   3.01766   1.50973  -0.00216   0.01481  -0.00000
   Br     5.81418  -3.01766   1.50973   0.00216   0.01481  -0.00000
   Br    16.08160 -10.38611   1.50973  -0.00216   0.01481  -0.00000
   Br    16.08160  -4.35080   1.50973   0.00216   0.01481  -0.00000
   Br    13.03357  -7.36845   1.50973   0.00000  -0.00665   0.00000
   Br     8.86222   0.00000   1.50973   0.00000  -0.00665  -0.00000
   Br    11.88080   0.00000   4.52920  -0.00000  -0.00546  -0.00000
   Br    10.01498  -7.36845  -1.50973  -0.00000  -0.00546  -0.00000
   C     11.26720  -2.99412   1.50973  -0.00190  -0.01564   0.00000
   C     11.26720   2.99412   1.50973   0.00190  -0.01564  -0.00000
   C     10.62859  -4.37433   1.50973  -0.00190  -0.01564  -0.00000
   C     10.62859 -10.36257   1.50973   0.00190  -0.01564  -0.00000
   C     13.43034  -1.80159   1.50973  -0.00342  -0.01372  -0.00000
   C      6.13174  -5.56686  -1.50973   0.00342  -0.01372   0.00000
   C      8.46545  -5.56686   1.50973  -0.00342  -0.01372  -0.00000
   C     15.76404  -1.80159   4.52920   0.00342  -0.01372  -0.00000
   H     10.90777  -4.94511   0.61516  -0.00281  -0.01662   0.00026
   H      3.60917  -2.42334  -0.61516   0.00281  -0.01662   0.00026
   H     10.98802  -2.42334   0.61516  -0.00281  -0.01662  -0.00026
   H     10.98802   2.42334   2.40431   0.00281  -0.01662  -0.00026
   H     10.98802  -2.42334   2.40431  -0.00281  -0.01662   0.00026
   H     18.28661  -4.94511   3.63462   0.00281  -0.01662   0.00026
   H     10.90777  -4.94511   2.40431  -0.00281  -0.01662  -0.00026
   H     10.90777  -9.79179   0.61516   0.00281  -0.01662  -0.00026
   H     14.51096  -1.96862   1.50973  -0.00350  -0.01413  -0.00000
   H      7.21237  -5.39983  -1.50973   0.00350  -0.01413  -0.00000
   H      7.38483  -5.39983   1.50973  -0.00350  -0.01413  -0.00000
   H     14.68342  -1.96862   4.52920   0.00350  -0.01413   0.00000
   H      8.77711  -6.11091   2.40811  -0.00368  -0.01459  -0.00032
   H      8.77711  -8.62599   0.61136   0.00368  -0.01459  -0.00032
   H     13.11868  -1.25754   2.40811  -0.00368  -0.01459   0.00032
   H     13.11868   1.25754   0.61136   0.00368  -0.01459   0.00032
   H     13.11868  -1.25754   0.61136  -0.00368  -0.01459  -0.00032
   H     13.11868   1.25754   2.40811   0.00368  -0.01459  -0.00032
   H      8.77711  -6.11091   0.61136  -0.00368  -0.01459   0.00032
   H      8.77711  -8.62599   2.40811   0.00368  -0.01459   0.00032
   H      8.85259  -3.70617   0.66070  -0.00156  -0.01321   0.00050
   H      8.85259   3.70617   2.35877   0.00156  -0.01321   0.00050
   H     13.04319  -3.66228   0.66070  -0.00156  -0.01321  -0.00050
   H      5.74460  -3.70617  -0.66070   0.00156  -0.01321  -0.00050
   H     13.04319  -3.66228   2.35877  -0.00156  -0.01321   0.00050
   H     13.04319 -11.07462   0.66070   0.00156  -0.01321   0.00050
   H      8.85259  -3.70617   2.35877  -0.00156  -0.01321  -0.00050
   H     16.15119  -3.66228   3.68016   0.00156  -0.01321  -0.00050
   N     12.75049  -3.12541   1.50973  -0.00219  -0.01406  -0.00000
   N      5.45189  -4.24304  -1.50973   0.00219  -0.01406  -0.00000
   N      9.14530  -4.24304   1.50973  -0.00219  -0.01406  -0.00000
   N     16.44390  -3.12541   4.52920   0.00219  -0.01406  -0.00000
PRIMCOORD    3
     50   1
   Pb    16.27798  -7.36845   1.50973   0.00117  -0.00000  -0.00000
   Pb     5.61781   0.00000   1.50973   0.00117   0.00000   0.00000
   Br     5.81418   3.01766   1.50973  -0.00514  -0.00423   0.00000
   Br     5.81418  -3.01766   1.50973  -0.00514   0.00423   0.00000
   Br    16.08160 -10.38611   1.50973  -0.00514  -0.00423  -0.00000
   Br    16.08160  -4.35080   1.50973  -0.00514   0.00423  -0.00000
   Br    13.03357  -7.36845   1.50973  -0.00382  -0.00000   0.00000
   Br     8.86222   0.00000   1.50973  -0.00382  -0.00000  -0.00000
   Br    11.88080   0.00000   4.52920   0.02689  -0.00000  -0.00000
   Br    10.01498  -7.36845  -1.50973   0.02689  -0.00000   0.00000
   C     11.26720  -2.99412   1.50973  -0.01384  -0.00217   0.00000
   C     11.26720   2.99412   1.50973  -0.01384   0.00217   0.00000
   C     10.62859  -4.37433   1.50973  -0.01384  -0.00217  -0.00000
   C     10.62859 -10.36257   1.50973  -0.01384   0.00217   0.00000
   C     13.43034  -1.80159   1.50973  -0.01414  -0.00170  -0.00000
   C      6.13174  -5.56686  -1.50973  -0.01414   0.00170  -0.00000
   C      8.46545  -5.56686   1.50973  -0.01414  -0.00170  -0.00000
   C     15.76404  -1.80159   4.52920  -0.01414   0.00170  -0.00000
   H     10.90777  -4.94511   0.61516  -0.01457  -0.00238  -0.00009
   H      3.60917  -2.42334  -0.61516  -0.01457   0.00238   0.00009
   H     10.98802  -2.42334   0.61516  -0.01457  -0.00238   0.00009
   H     10.98802   2.42334   2.40431  -0.01457   0.00238  -0.00009
   H     10.98802  -2.42334   2.40431  -0.01457  -0.00238  -0.00009
   H     18.28661  -4.94511   3.63462  -0.01457   0.00238   0.00009
   H     10.90777  -4.94511   2.40431  -0.01457  -0.00238   0.00009
   H     10.90777  -9.79179   0.61516  -0.01457   0.00238  -0.00009
   H     14.51096  -1.96862   1.50973  -0.01433  -0.00228  -0.00000
   H      7.21237  -5.39983  -1.50973  -0.01433   0.00228  -0.00000
   H      7.38483  -5.39983   1.50973  -0.01433  -0.00228  -0.00000
   H     14.68342  -1.96862   4.52920  -0.01433   0.00228  -0.00000
   H      8.77711  -6.11091   2.40811  -0.01465  -0.00192  -0.00010
   H      8.77711  -8.62599   0.61136  -0.01465   0.00192   0.00010
   H     13.11868  -1.25754   2.40811  -0.01465  -0.00192   0.00010
   H     13.11868   1.25754   0.61136  -0.01465   0.00192  -0.00010
   H     13.11868  -1.25754   0.61136  -0.01465  -0.00192  -0.00010
   H     13.11868   1.25754   2.40811  -0.01465   0.00192   0.00010
   H      8.77711  -6.11091   0.61136  -0.01465  -0.00192   0.00010
   H      8.77711  -8.62599   2.40811  -0.01465   0.00192  -0.00010
   H      8.85259  -3.70617   0.66070  -0.01413  -0.00212  -0.00017
   H      8.85259   3.70617   2.35877  -0.01413   0.00212   0.00017
   H     13.04319  -3.66228   0.66070  -0.01413  -0.00212   0.00017
   H      5.74460  -3.70617  -0.66070  -0.01413   0.00212  -0.00017
   H     13.04319  -3.66228   2.35877  -0.01413  -0.00212  -0.00017
   H     13.04319 -11.07462   0.66070  -0.01413   0.00212   0.00017
   H      8.85259  -3.70617   2.35877  -0.01413  -0.00212   0.00017
   H     16.15119  -3.66228   3.68016  -0.01413   0.00212  -0.00017
   N     12.75049  -3.12541   1.50973  -0.01384  -0.00196  -0.00000
   N      5.45189  -4.24304  -1.50973  -0.01384   0.00196   0.00000
   N      9.14530  -4.24304   1.50973  -0.01384  -0.00196   0.00000
   N     16.44390  -3.12541   4.52920  -0.01384   0.00196  -0.00000
PRIMCOORD    4
     50   1
   Pb    16.27798  -7.36845   1.50973   0.00000  -0.00000   0.00466
   Pb     5.61781   0.00000   1.50973   0.00000  -0.00000  -0.00466
   Br     5.81418   3.01766   1.50973  -0.00000   0.00000  -0.00138
   Br     5.81418  -3.01766   1.50973  -0.00000   0.00000  -0.00138
   Br    16.08160 -10.38611   1.50973  -0.00000  -0.00000   0.00138
   Br    16.08160  -4.35080   1.50973  -0.00000   0.00000   0.00138
   Br    13.03357  -7.36845   1.50973  -0.00000  -0.00000  -0.07036
   Br     8.86222   0.00000   1.50973  -0.00000  -0.00000   0.07036
   Br    11.88080   0.00000   4.52920   0.00000  -0.00000   0.00071
   Br    10.01498  -7.36845  -1.50973   0.00000  -0.00000  -0.00071
   C     11.26720  -2.99412   1.50973  -0.00000  -0.00000  -0.00073
   C     11.26720   2.99412   1.50973  -0.00000  -0.00000  -0.00073
   C     10.62859  -4.37433   1.50973  -0.00000  -0.00000   0.00073
   C     10.62859 -10.36257   1.50973  -0.00000  -0.00000   0.00073
   C     13.43034  -1.80159   1.50973  -0.00000  -0.00000  -0.00030
   C      6.13174  -5.56686  -1.50973  -0.00000  -0.00000  -0.00030
   C      8.46545  -5.56686   1.50973  -0.00000  -0.00000   0.00030
   C     15.76404  -1.80159   4.52920  -0.00000  -0.00000   0.00030
   H     10.90777  -4.94511   0.61516   0.00035  -0.00122   0.00163
   H      3.60917  -2.42334  -0.61516  -0.00035  -0.00122   0.00163
   H     10.98802  -2.42334   0.61516   0.00035  -0.00122  -0.00163
   H     10.98802   2.42334   2.40431  -0.00035  -0.00122  -0.00163
   H     10.98802  -2.42334   2.40431  -0.00035   0.00122  -0.00163
   H     18.28661  -4.94511   3.63462   0.00035   0.00122  -0.00163
   H     10.90777  -4.94511   2.40431  -0.00035   0.00122   0.00163
   H     10.90777  -9.79179   0.61516   0.00035   0.00122   0.00163
   H     14.51096  -1.96862   1.50973  -0.00000  -0.00000   0.00019
   H      7.21237  -5.39983  -1.50973  -0.00000  -0.00000   0.00019
   H      7.38483  -5.39983   1.50973  -0.00000  -0.00000  -0.00019
   H     14.68342  -1.96862   4.52920  -0.00000  -0.00000  -0.00019
   H      8.77711  -6.11091   2.40811  -0.00028   0.00009   0.00044
   H      8.77711  -8.62599   0.61136   0.00028   0.00009   0.00044
   H     13.11868  -1.25754   2.40811  -0.00028   0.00009  -0.00044
   H     13.11868   1.25754   0.61136   0.00028   0.00009  -0.00044
   H     13.11868  -1.25754   0.61136   0.00028  -0.00009  -0.00044
   H     13.11868   1.25754   2.40811  -0.00028  -0.00009  -0.00044
   H      8.77711  -6.11091   0.61136   0.00028  -0.00009   0.00044
   H      8.77711  -8.62599   2.40811  -0.00028  -0.00009   0.00044
   H      8.85259  -3.70617   0.66070   0.00051  -0.00069  -0.00063
   H      8.85259   3.70617   2.35877  -0.00051  -0.00069  -0.00063
   H     13.04319  -3.66228   0.66070   0.00051  -0.00069   0.00063
   H      5.74460  -3.70617  -0.66070  -0.00051  -0.00069   0.00063
   H     13.04319  -3.66228   2.35877  -0.00051   0.00069   0.00063
   H     13.04319 -11.07462   0.66070   0.00051   0.00069   0.00063
   H      8.85259  -3.70617   2.35877  -0.00051   0.00069  -0.00063
   H     16.15119  -3.66228   3.68016   0.00051   0.00069  -0.00063
   N     12.75049  -3.12541   1.50973  -0.00000  -0.00000  -0.00011
   N      5.45189  -4.24304  -1.50973  -0.00000  -0.00000  -0.00011
   N      9.14530  -4.24304   1.50973  -0.00000  -0.00000   0.00011
   N     16.44390  -3.12541   4.52920  -0.00000  -0.00000   0.00011
PRIMCOORD    5
     50   1
   Pb    16.27798  -7.36845   1.50973  -0.00000  -0.00803   0.00000
   Pb     5.61781   0.00000   1.50973   0.00000   0.00803   0.00000
   Br     5.81418   3.01766   1.50973  -0.00393   0.04869   0.00000
   Br     5.81418  -3.01766   1.50973   0.00393   0.04869  -0.00000
   Br    16.08160 -10.38611   1.50973   0.00393  -0.04869  -0.00000
   Br    16.08160  -4.35080   1.50973  -0.00393  -0.04869   0.00000
   Br    13.03357  -7.36845   1.50973  -0.00000   0.00069   0.00000
   Br     8.86222   0.00000   1.50973   0.00000  -0.00069   0.00000
   Br    11.88080   0.00000   4.52920  -0.00000   0.00065   0.00000
   Br    10.01498  -7.36845  -1.50973   0.00000  -0.00065   0.00000
   C     11.26720  -2.99412   1.50973  -0.00054   0.00041   0.00000
   C     11.26720   2.99412   1.50973   0.00054   0.00041  -0.00000
   C     10.62859  -4.37433   1.50973   0.00054  -0.00041   0.00000
   C     10.62859 -10.36257   1.50973  -0.00054  -0.00041   0.00000
   C     13.43034  -1.80159   1.50973   0.00193  -0.00146  -0.00000
   C      6.13174  -5.56686  -1.50973  -0.00193  -0.00146  -0.00000
   C      8.46545  -5.56686   1.50973  -0.00193   0.00146   0.00000
   C     15.76404  -1.80159   4.52920   0.00193   0.00146  -0.00000
   H     10.90777  -4.94511   0.61516   0.00096   0.00023  -0.00026
   H      3.60917  -2.42334  -0.61516  -0.00096   0.00023  -0.00026
   H     10.98802  -2.42334   0.61516  -0.00096  -0.00023  -0.00026
   H     10.98802   2.42334   2.40431   0.00096  -0.00023  -0.00026
   H     10.98802  -2.42334   2.40431  -0.00096  -0.00023   0.00026
   H     18.28661  -4.94511   3.63462   0.00096  -0.00023   0.00026
   H     10.90777  -4.94511   2.40431   0.00096   0.00023   0.00026
   H     10.90777  -9.79179   0.61516  -0.00096   0.00023   0.00026
   H     14.51096  -1.96862   1.50973   0.00167  -0.00381  -0.00000
   H      7.21237  -5.39983  -1.50973  -0.00167  -0.00381  -0.00000
   H      7.38483  -5.39983   1.50973  -0.00167   0.00381  -0.00000
   H     14.68342  -1.96862   4.52920   0.00167   0.00381  -0.00000
   H      8.77711  -6.11091   2.40811  -0.00402   0.00060   0.00018
   H      8.77711  -8.62599   0.61136   0.00402   0.00060   0.00018
   H     13.11868  -1.25754   2.40811   0.00402  -0.00060   0.00018
   H     13.11868   1.25754   0.61136  -0.00402  -0.00060   0.00018
   H     13.11868  -1.25754   0.61136   0.00402  -0.00060  -0.00018
   H     13.11868   1.25754   2.40811  -0.00402  -0.00060  -0.00018
   H      8.77711  -6.11091   0.61136  -0.00402   0.00060  -0.00018
   H      8.77711  -8.62599   2.40811   0.00402   0.00060  -0.00018
   H      8.85259  -3.70617   0.66070   0.00212  -0.00187  -0.00166
   H      8.85259   3.70617   2.35877  -0.00212  -0.00187  -0.00166
   H     13.04319  -3.66228   0.66070  -0.00212   0.00187  -0.00166
   H      5.74460  -3.70617  -0.66070   0.00212   0.00187  -0.00166
   H     13.04319  -3.66228   2.35877  -0.00212   0.00187   0.00166
   H     13.04319 -11.07462   0.66070   0.00212   0.00187   0.00166
   H      8.85259  -3.70617   2.35877   0.00212  -0.00187   0.00166
   H     16.15119  -3.66228   3.68016  -0.00212  -0.00187   0.00166
   N     12.75049  -3.12541   1.50973  -0.00087   0.00057   0.00000
   N      5.45189  -4.24304  -1.50973   0.00087   0.00057  -0.00000
   N      9.14530  -4.24304   1.50973   0.00087  -0.00057   0.00000
   N     16.44390  -3.12541   4.52920  -0.00087  -0.00057  -0.00000
PRIMCOORD    6
     50   1
   Pb    16.27798  -7.36845   1.50973  -0.01071   0.00000  -0.00000
   Pb     5.61781   0.00000   1.50973   0.01071  -0.00000   0.00000
   Br     5.81418   3.01766   1.50973  -0.00081   0.01724   0.00000
   Br     5.81418  -3.01766   1.50973  -0.00081  -0.01724  -0.00000
   Br    16.08160 -10.38611   1.50973   0.00081  -0.01724  -0.00000
   Br    16.08160  -4.35080   1.50973   0.00081   0.01724   0.00000
   Br    13.03357  -7.36845   1.50973  -0.00181   0.00000   0.00000
   Br     8.86222   0.00000   1.50973   0.00181   0.00000  -0.00000
   Br    11.88080   0.00000   4.52920  -0.05880   0.00000   0.00000
   Br    10.01498  -7.36845  -1.50973   0.05880   0.00000  -0.00000
   C     11.26720  -2.99412   1.50973  -0.00189   0.00078  -0.00000
   C     11.26720   2.99412   1.50973  -0.00189  -0.00078   0.00000
   C     10.62859  -4.37433   1.50973   0.00189  -0.00078   0.00000
   C     10.62859 -10.36257   1.50973   0.00189   0.00078   0.00000
   C     13.43034  -1.80159   1.50973  -0.00540   0.00575  -0.00000
   C      6.13174  -5.56686  -1.50973  -0.00540  -0.00575  -0.00000
   C      8.46545  -5.56686   1.50973   0.00540  -0.00575  -0.00000
   C     15.76404  -1.80159   4.52920   0.00540   0.00575  -0.00000
   H     10.90777  -4.94511   0.61516   0.00348   0.00014  -0.00012
   H      3.60917  -2.42334  -0.61516   0.00348  -0.00014   0.00012
   H     10.98802  -2.42334   0.61516  -0.00348  -0.00014  -0.00012
   H     10.98802   2.42334   2.40431  -0.00348   0.00014   0.00012
   H     10.98802  -2.42334   2.40431  -0.00348  -0.00014   0.00012
   H     18.28661  -4.94511   3.63462  -0.00348   0.00014  -0.00012
   H     10.90777  -4.94511   2.40431   0.00348   0.00014   0.00012
   H     10.90777  -9.79179   0.61516   0.00348  -0.00014  -0.00012
   H     14.51096  -1.96862   1.50973  -0.00499   0.00813   0.00000
   H      7.21237  -5.39983  -1.50973  -0.00499  -0.00813  -0.00000
   H      7.38483  -5.39983   1.50973   0.00499  -0.00813   0.00000
   H     14.68342  -1.96862   4.52920   0.00499   0.00813  -0.00000
   H      8.77711  -6.11091   2.40811   0.00712  -0.00495  -0.00019
   H      8.77711  -8.62599   0.61136   0.00712   0.00495   0.00019
   H     13.11868  -1.25754   2.40811  -0.00712   0.00495  -0.00019
   H     13.11868   1.25754   0.61136  -0.00712  -0.00495   0.00019
   H     13.11868  -1.25754   0.61136  -0.00712   0.00495   0.00019
   H     13.11868   1.25754   2.40811  -0.00712  -0.00495  -0.00019
   H      8.77711  -6.11091   0.61136   0.00712  -0.00495   0.00019
   H      8.77711  -8.62599   2.40811   0.00712   0.00495  -0.00019
   H      8.85259  -3.70617   0.66070   0.00016  -0.00550  -0.00062
   H      8.85259   3.70617   2.35877   0.00016   0.00550   0.00062
   H     13.04319  -3.66228   0.66070  -0.00016   0.00550  -0.00062
   H      5.74460  -3.70617  -0.66070  -0.00016  -0.00550   0.00062
   H     13.04319  -3.66228   2.35877  -0.00016   0.00550   0.00062
   H     13.04319 -11.07462   0.66070  -0.00016  -0.00550  -0.00062
   H      8.85259  -3.70617   2.35877   0.00016  -0.00550   0.00062
   H     16.15119  -3.66228   3.68016   0.00016   0.00550  -0.00062
   N     12.75049  -3.12541   1.50973  -0.00164   0.00428   0.00000
   N      5.45189  -4.24304  -1.50973  -0.00164  -0.00428  -0.00000
   N      9.14530  -4.24304   1.50973   0.00164  -0.00428  -0.00000
   N     16.44390  -3.12541   4.52920   0.00164   0.00428   0.00000
PRIMCOORD    7
     50   1
   Pb    16.27798  -7.36845   1.50973   0.00232  -0.00000   0.00000
   Pb     5.61781   0.00000   1.50973   0.00232   0.00000   0.00000
   Br     5.81418   3.01766   1.50973  -0.00675   0.04519  -0.00000
   Br     5.81418  -3.01766   1.50973  -0.00675  -0.04519  -0.00000
   Br    16.08160 -10.38611   1.50973  -0.00675   0.04519  -0.00000
   Br    16.08160  -4.35080   1.50973  -0.00675  -0.04519  -0.00000
   Br    13.03357  -7.36845   1.50973   0.00092  -0.00000  -0.00000
   Br     8.86222   0.00000   1.50973   0.00092  -0.00000   0.00000
   Br    11.88080   0.00000   4.52920   0.00998  -0.00000   0.00000
   Br    10.01498  -7.36845  -1.50973   0.00998   0.00000   0.00000
   C     11.26720  -2.99412   1.50973  -0.00420   0.00604   0.00000
   C     11.26720   2.99412   1.50973  -0.00420  -0.00604   0.00000
   C     10.62859  -4.37433   1.50973  -0.00420   0.00604   0.00000
   C     10.62859 -10.36257   1.50973  -0.00420  -0.00604   0.00000
   C     13.43034  -1.80159   1.50973  -0.00001  -0.00037   0.00000
   C      6.13174  -5.56686  -1.50973  -0.00001   0.00037  -0.00000
   C      8.46545  -5.56686   1.50973  -0.00001  -0.00037  -0.00000
   C     15.76404  -1.80159   4.52920  -0.00001   0.00037   0.00000
   H     10.90777  -4.94511   0.61516  -0.00361   0.00607   0.00012
   H      3.60917  -2.42334  -0.61516  -0.00361  -0.00607  -0.00012
   H     10.98802  -2.42334   0.61516  -0.00361   0.00607  -0.00012
   H     10.98802   2.42334   2.40431  -0.00361  -0.00607   0.00012
   H     10.98802  -2.42334   2.40431  -0.00361   0.00607   0.00012
   H     18.28661  -4.94511   3.63462  -0.00361  -0.00607  -0.00012
   H     10.90777  -4.94511   2.40431  -0.00361   0.00607  -0.00012
   H     10.90777  -9.79179   0.61516  -0.00361  -0.00607   0.00012
   H     14.51096  -1.96862   1.50973  -0.00056  -0.00433  -0.00000
   H      7.21237  -5.39983  -1.50973  -0.00056   0.00433  -0.00000
   H      7.38483  -5.39983   1.50973  -0.00056  -0.00433  -0.00000
   H     14.68342  -1.96862   4.52920  -0.00056   0.00433   0.00000
   H      8.77711  -6.11091   2.40811   0.00272   0.00091  -0.00016
   H      8.77711  -8.62599   0.61136   0.00272  -0.00091   0.00016
   H     13.11868  -1.25754   2.40811   0.00272   0.00091   0.00016
   H     13.11868   1.25754   0.61136   0.00272  -0.00091  -0.00016
   H     13.11868  -1.25754   0.61136   0.00272   0.00091  -0.00016
   H     13.11868   1.25754   2.40811   0.00272  -0.00091   0.00016
   H      8.77711  -6.11091   0.61136   0.00272   0.00091   0.00016
   H      8.77711  -8.62599   2.40811   0.00272  -0.00091  -0.00016
   H      8.85259  -3.70617   0.66070  -0.00737   0.00341   0.00190
   H      8.85259   3.70617   2.35877  -0.00737  -0.00341  -0.00190
   H     13.04319  -3.66228   0.66070  -0.00737   0.00341  -0.00190
   H      5.74460  -3.70617  -0.66070  -0.00737  -0.00341   0.00190
   H     13.04319  -3.66228   2.35877  -0.00737   0.00341   0.00190
   H     13.04319 -11.07462   0.66070  -0.00737  -0.00341  -0.00190
   H      8.85259  -3.70617   2.35877  -0.00737   0.00341  -0.00190
   H     16.15119  -3.66228   3.68016  -0.00737  -0.00341   0.00190
   N     12.75049  -3.12541   1.50973  -0.00486   0.00272  -0.00000
   N      5.45189  -4.24304  -1.50973  -0.00486  -0.00272  -0.00000
   N      9.14530  -4.24304   1.50973  -0.00486   0.00272   0.00000
   N     16.44390  -3.12541   4.52920  -0.00486  -0.00272   0.00000
PRIMCOORD    8
     50   1
   Pb    16.27798  -7.36845   1.50973   0.00627  -0.00000  -0.00000
   Pb     5.61781   0.00000   1.50973  -0.00627  -0.00000   0.00000
   Br     5.81418   3.01766   1.50973  -0.00521   0.03863   0.00000
   Br     5.81418  -3.01766   1.50973  -0.00521  -0.03863  -0.00000
   Br    16.08160 -10.38611   1.50973   0.00521  -0.03863  -0.00000
   Br    16.08160  -4.35080   1.50973   0.00521   0.03863   0.00000
   Br    13.03357  -7.36845   1.50973   0.00239  -0.00000   0.00000
   Br     8.86222   0.00000   1.50973  -0.00239  -0.00000  -0.00000
   Br    11.88080   0.00000   4.52920   0.02059  -0.00000  -0.00000
   Br    10.01498  -7.36845  -1.50973  -0.02059  -0.00000  -0.00000
   C     11.26720  -2.99412   1.50973  -0.00243   0.00117  -0.00000
   C     11.26720   2.99412   1.50973  -0.00243  -0.00117   0.00000
   C     10.62859  -4.37433   1.50973   0.00243  -0.00117   0.00000
   C     10.62859 -10.36257   1.50973   0.00243   0.00117   0.00000
   C     13.43034  -1.80159   1.50973  -0.00601   0.00856  -0.00000
   C      6.13174  -5.56686  -1.50973  -0.00601  -0.00856  -0.00000
   C      8.46545  -5.56686   1.50973   0.00601  -0.00856  -0.00000
   C     15.76404  -1.80159   4.52920   0.00601   0.00856  -0.00000
   H     10.90777  -4.94511   0.61516   0.00465   0.00032  -0.00018
   H      3.60917  -2.42334  -0.61516   0.00465  -0.00032   0.00018
   H     10.98802  -2.42334   0.61516  -0.00465  -0.00032  -0.00018
   H     10.98802   2.42334   2.40431  -0.00465   0.00032   0.00018
   H     10.98802  -2.42334   2.40431  -0.00465  -0.00032   0.00018
   H     18.28661  -4.94511   3.63462  -0.00465   0.00032  -0.00018
   H     10.90777  -4.94511   2.40431   0.00465   0.00032   0.00018
   H     10.90777  -9.79179   0.61516   0.00465  -0.00032  -0.00018
   H     14.51096  -1.96862   1.50973  -0.00565   0.01122  -0.00000
   H      7.21237  -5.39983  -1.50973  -0.00565  -0.01122  -0.00000
   H      7.38483  -5.39983   1.50973   0.00565  -0.01122  -0.00000
   H     14.68342  -1.96862   4.52920   0.00565   0.01122  -0.00000
   H      8.77711  -6.11091   2.40811   0.00700  -0.00748   0.00020
   H      8.77711  -8.62599   0.61136   0.00700   0.00748  -0.00020
   H     13.11868  -1.25754   2.40811  -0.00700   0.00748   0.00020
   H     13.11868   1.25754   0.61136  -0.00700  -0.00748  -0.00020
   H     13.11868  -1.25754   0.61136  -0.00700   0.00748  -0.00020
   H     13.11868   1.25754   2.40811  -0.00700  -0.00748   0.00020
   H      8.77711  -6.11091   0.61136   0.00700  -0.00748  -0.00020
   H      8.77711  -8.62599   2.40811   0.00700   0.00748   0.00020
   H      8.85259  -3.70617   0.66070   0.00044  -0.00903  -0.00072
   H      8.85259   3.70617   2.35877   0.00044   0.00903   0.00072
   H     13.04319  -3.66228   0.66070  -0.00044   0.00903  -0.00072
   H      5.74460  -3.70617  -0.66070  -0.00044  -0.00903   0.00072
   H     13.04319  -3.66228   2.35877  -0.00044   0.00903   0.00072
   H     13.04319 -11.07462   0.66070  -0.00044  -0.00903  -0.00072
   H      8.85259  -3.70617   2.35877   0.00044  -0.00903   0.00072
   H     16.15119  -3.66228   3.68016   0.00044   0.00903  -0.00072
   N     12.75049  -3.12541   1.50973  -0.00220   0.00695   0.00000
   N      5.45189  -4.24304  -1.50973  -0.00220  -0.00695  -0.00000
   N      9.14530  -4.24304   1.50973   0.00220  -0.00695  -0.00000
   N     16.44390  -3.12541   4.52920   0.00220   0.00695   0.00000
PRIMCOORD    9
     50   1
   Pb    16.27798  -7.36845   1.50973  -0.01234   0.00691   0.00004
   Pb     5.61781   0.00000   1.50973  -0.01234   0.00691   0.00004
   Br     5.81418   3.01766   1.50973  -0.01234   0.00691   0.00004
   Br     5.81418  -3.01766   1.50973  -0.01234   0.00691   0.00004
   Br    16.08160 -10.38611   1.50973  -0.01234   0.00691   0.00004
   Br    16.08160  -4.35080   1.50973  -0.01234   0.00691   0.00004
   Br    13.03357  -7.36845   1.50973  -0.01234   0.00691   0.00004
   Br     8.86222   0.00000   1.50973  -0.01234   0.00691   0.00004
   Br    11.88080   0.00000   4.52920  -0.01234   0.00691   0.00004
   Br    10.01498  -7.36845  -1.50973  -0.01234   0.00691   0.00004
   C     11.26720  -2.99412   1.50973  -0.01234   0.00691   0.00004
   C     11.26720   2.99412   1.50973  -0.01234   0.00691   0.00004
   C     10.62859  -4.37433   1.50973  -0.01234   0.00691   0.00004
   C     10.62859 -10.36257   1.50973  -0.01234   0.00691   0.00004
   C     13.43034  -1.80159   1.50973  -0.01234   0.00691   0.00004
   C      6.13174  -5.56686  -1.50973  -0.01234   0.00691   0.00004
   C      8.46545  -5.56686   1.50973  -0.01234   0.00691   0.00004
   C     15.76404  -1.80159   4.52920  -0.01234   0.00691   0.00004
   H     10.90777  -4.94511   0.61516  -0.01234   0.00691   0.00004
   H      3.60917  -2.42334  -0.61516  -0.01234   0.00691   0.00004
   H     10.98802  -2.42334   0.61516  -0.01234   0.00691   0.00004
   H     10.98802   2.42334   2.40431  -0.01234   0.00691   0.00004
   H     10.98802  -2.42334   2.40431  -0.01234   0.00691   0.00004
   H     18.28661  -4.94511   3.63462  -0.01234   0.00691   0.00004
   H     10.90777  -4.94511   2.40431  -0.01234   0.00691   0.00004
   H     10.90777  -9.79179   0.61516  -0.01234   0.00691   0.00004
   H     14.51096  -1.96862   1.50973  -0.01234   0.00691   0.00004
   H      7.21237  -5.39983  -1.50973  -0.01234   0.00691   0.00004
   H      7.38483  -5.39983   1.50973  -0.01234   0.00691   0.00004
   H     14.68342  -1.96862   4.52920  -0.01234   0.00691   0.00004
   H      8.77711  -6.11091   2.40811  -0.01234   0.00691   0.00004
   H      8.77711  -8.62599   0.61136  -0.01234   0.00691   0.00004
   H     13.11868  -1.25754   2.40811  -0.01234   0.00691   0.00004
   H     13.11868   1.25754   0.61136  -0.01234   0.00691   0.00004
   H     13.11868  -1.25754   0.61136  -0.01234   0.00691   0.00004
   H     13.11868   1.25754   2.40811  -0.01234   0.00691   0.00004
   H      8.77711  -6.11091   0.61136  -0.01234   0.00691   0.00004