[Molden Format]
[FREQ]
    0.00
    0.00
    0.00
    0.00
    0.00
    0.00
   21.97
   32.04
   32.75
   33.88
   40.85
   43.06
   43.54
   44.64
   47.72
   50.12
   50.89
   52.01
   57.01
   57.83
   60.57
   60.66
   61.86
   68.24
   99.14
  100.66
  101.55
  103.59
  104.13
  105.00
  105.04
  108.47
  111.53
  114.20
  116.23
  116.60
  118.87
  121.10
  130.01
  137.23
  140.40
  146.16
  156.65
  162.51
  177.66
  182.23
  212.61
  214.08
  219.01
  221.41
  279.80
  281.80
  297.65
  306.89
  315.71
  323.69
  375.88
  378.33
  471.59
  474.16
  757.42
  758.31
  824.47
  828.88
  880.93
  881.33
  905.89
  905.95
  958.68
  959.76
 1000.85
 1003.89
 1016.65
 1027.46
 1037.20
 1039.59
 1051.45
 1053.96
 1089.83
 1093.05
 1127.04
 1133.02
 1186.63
 1189.14
 1225.27
 1231.66
 1292.57
 1296.17
 1312.33
 1313.63
 1317.31
 1319.20
 1387.75
 1389.55
 1393.09
 1397.39
 1403.01
 1406.80
 1408.82
 1412.04
 1414.16
 1417.07
 1423.97
 1427.60
 1430.65
 1435.74
 1435.96
 1437.27
 1444.89
 1445.76
 1452.14
 1452.94
 1454.51
 1460.86
 1470.54
 1474.16
 1476.59
 1482.37
 1539.62
 1543.71
 1549.28
 1549.98
 2956.12
 2959.54
 2961.95
 2967.01
 2972.00
 2972.10
 2972.36
 2972.71
 2976.29
 2976.58
 2983.82
 2984.99
 3011.65
 3012.09
 3013.97
 3017.12
 3035.38
 3035.55
 3051.76
 3052.17
 3052.98
 3055.38
 3055.64
 3056.04
 3077.48
 3077.94
 3079.35
 3079.58
[FR-COORD]
   Pb         30.77606      -13.91997        2.85286
   Pb         10.62398        0.00000        2.85286
   Br         10.99518        5.70263        2.85286
   Br         10.99518       -5.70263        2.85286
   Br         30.40485      -19.62260        2.85286
   Br         30.40485       -8.21733        2.85286
   Br         24.64518      -13.91997        2.85286
   Br         16.75485        0.00000        2.85286
   Br         22.45889        0.00000        8.55859
   Br         18.94115      -13.91997       -2.85287
   C          21.30333       -5.65584        2.85286
   C          21.30333        5.65584        2.85286
   C          20.09671       -8.26412        2.85286
   C          20.09671      -19.57581        2.85286
   C          25.39092       -3.40222        2.85286
   C          11.59090      -10.51775       -2.85287
   C          16.00912      -10.51775        2.85286
   C          29.80913       -3.40222        8.55859
   H          20.62433       -9.34279        1.16237
   H           6.82432       -4.57717       -1.16238
   H          20.77570       -4.57717        1.16237
   H          20.77570        4.57717        4.54335
   H          20.77570       -4.57717        4.54335
   H          34.57571       -9.34279        6.86810
   H          20.62433       -9.34279        4.54335
   H          20.62433      -18.49714        1.16237
   H          27.43299       -3.71791        2.85286
   H          13.63298      -10.20206       -2.85287
   H          13.96704      -10.20206        2.85286
   H          27.76706       -3.71791        8.55859
   H          16.59824      -11.54575        4.55058
   H          16.59824      -16.29419        1.15515
   H          24.80180       -2.37422        4.55058
   H          24.80180        2.37422        1.15515
   H          24.80180       -2.37422        1.15515
   H          24.80180        2.37422        4.55058
   H          16.59823      -11.54575        1.15515
   H          16.59824      -16.29419        4.55058
   H          16.74046       -7.00161        1.24833
   H          16.74046        7.00161        4.45740
   H          24.65958       -6.91835        1.24833
   H          10.85957       -7.00161       -1.24833
   H          24.65958       -6.91835        4.45740
   H          24.65958      -20.92158        1.24832
   H          16.74046       -7.00161        4.45740
   H          30.54047       -6.91835        6.95405
   N          24.10635       -5.90392        2.85286
   N          10.30634       -8.01605       -2.85287
   N          17.29368       -8.01605        2.85286
   N          31.09369       -5.90392        8.55859
[FR-NORM-COORD]
 vibration     1
   0.00000  -0.00926  -0.00000
   0.00000  -0.00926  -0.00000
  -0.02557  -0.03101   0.00000
   0.02557  -0.03101  -0.00000
  -0.02557  -0.03101   0.00000
   0.02557  -0.03101  -0.00000
   0.00000   0.26328   0.00000
   0.00000   0.26328   0.00000
   0.00000  -0.03000   0.00000
   0.00000  -0.03000   0.00000
  -0.06495  -0.12680   0.00000
   0.06495  -0.12680  -0.00000
  -0.06495  -0.12680   0.00000
   0.06495  -0.12680  -0.00000
  -0.05952  -0.13388   0.00000
   0.05952  -0.13388  -0.00000
  -0.05952  -0.13388   0.00000
   0.05952  -0.13388  -0.00000
  -0.06558  -0.12916   0.00150
   0.06558  -0.12916   0.00150
  -0.06558  -0.12916  -0.00150
   0.06558  -0.12916  -0.00150
  -0.06558  -0.12916   0.00150
   0.06558  -0.12916   0.00150
  -0.06558  -0.12916  -0.00150
   0.06558  -0.12916  -0.00150
  -0.06085  -0.14320   0.00000
   0.06085  -0.14320  -0.00000
  -0.06085  -0.14320   0.00000
   0.06085  -0.14320  -0.00000
  -0.05511  -0.13308  -0.00095
   0.05511  -0.13308  -0.00095
  -0.05511  -0.13308   0.00095
   0.05511  -0.13308   0.00095
  -0.05511  -0.13308  -0.00095
   0.05511  -0.13308  -0.00095
  -0.05511  -0.13308   0.00095
   0.05511  -0.13308   0.00095
  -0.06700  -0.12980   0.00107
   0.06700  -0.12980   0.00107
  -0.06700  -0.12980  -0.00107
   0.06700  -0.12980  -0.00107
  -0.06700  -0.12980   0.00107
   0.06700  -0.12980   0.00107
  -0.06700  -0.12980  -0.00107
   0.06700  -0.12980  -0.00107
  -0.06556  -0.12969   0.00000
   0.06556  -0.12969  -0.00000
  -0.06556  -0.12969   0.00000
   0.06556  -0.12969  -0.00000
 vibration     2
   0.00000   0.01479  -0.00000
  -0.00000  -0.01479   0.00000
  -0.07908  -0.00250   0.00000
   0.07908  -0.00250  -0.00000
   0.07908   0.00250  -0.00000
  -0.07908   0.00250   0.00000
   0.00000  -0.65490   0.00000
  -0.00000   0.65490  -0.00000
   0.00000   0.02323  -0.00000
  -0.00000  -0.02323   0.00000
  -0.01996   0.01027  -0.00000
   0.01996   0.01027  -0.00000
   0.01996  -0.01027   0.00000
  -0.01996  -0.01027   0.00000
  -0.03562   0.05474  -0.00000
   0.03562   0.05474  -0.00000
   0.03562  -0.05474   0.00000
  -0.03562  -0.05474   0.00000
   0.03451   0.00029  -0.00293
  -0.03451   0.00029  -0.00293
  -0.03451  -0.00029  -0.00293
   0.03451  -0.00029  -0.00293
  -0.03451  -0.00029   0.00293
   0.03451  -0.00029   0.00293
   0.03451   0.00029   0.00293
  -0.03451   0.00029   0.00293
  -0.03344   0.06787  -0.00000
   0.03344   0.06787  -0.00000
   0.03344  -0.06787   0.00000
  -0.03344  -0.06787   0.00000
   0.04289  -0.04989   0.00050
  -0.04289  -0.04989   0.00050
  -0.04289   0.04989   0.00050
   0.04289   0.04989   0.00050
  -0.04289   0.04989  -0.00050
   0.04289   0.04989  -0.00050
   0.04289  -0.04989  -0.00050
  -0.04289  -0.04989  -0.00050
   0.00807  -0.04998  -0.00056
  -0.00807  -0.04998  -0.00056
  -0.00807   0.04998  -0.00056
   0.00807   0.04998  -0.00056
  -0.00807   0.04998   0.00056
   0.00807   0.04998   0.00056
   0.00807  -0.04998   0.00056
  -0.00807  -0.04998   0.00056
  -0.01658   0.04430   0.00000
   0.01658   0.04430  -0.00000
   0.01658  -0.04430  -0.00000
  -0.01658  -0.04430   0.00000
 vibration     3
  -0.03094  -0.00000   0.00000
  -0.03094  -0.00000   0.00000
   0.05355   0.01043   0.00000
   0.05355  -0.01043  -0.00000
   0.05355   0.01043   0.00000
   0.05355  -0.01043  -0.00000
  -0.14991   0.00000   0.00000
  -0.14991   0.00000   0.00000
  -0.03478  -0.00000  -0.00000
  -0.03478  -0.00000  -0.00000
   0.13451   0.07063   0.00000
   0.13451  -0.07063  -0.00000
   0.13451   0.07063   0.00000
   0.13451  -0.07063  -0.00000
   0.14981   0.04812  -0.00000
   0.14981  -0.04812  -0.00000
   0.14981   0.04812  -0.00000
   0.14981  -0.04812  -0.00000
   0.14132   0.07261   0.00128
   0.14132  -0.07261  -0.00128
   0.14132   0.07261  -0.00128
   0.14132  -0.07261   0.00128
   0.14132   0.07261   0.00128
   0.14132  -0.07261  -0.00128
   0.14132   0.07261  -0.00128
   0.14132  -0.07261   0.00128
   0.14855   0.03983  -0.00000
   0.14855  -0.03983  -0.00000
   0.14855   0.03983  -0.00000
   0.14855  -0.03983  -0.00000
   0.15532   0.05055   0.00003
   0.15531  -0.05055  -0.00003
   0.15532   0.05055  -0.00003
   0.15532  -0.05055   0.00003
   0.15532   0.05055   0.00003
   0.15531  -0.05055  -0.00003
   0.15532   0.05055  -0.00003
   0.15532  -0.05055   0.00003
   0.12791   0.05165  -0.00053
   0.12791  -0.05165   0.00054
   0.12791   0.05165   0.00054
   0.12791  -0.05165  -0.00054
   0.12791   0.05165  -0.00053
   0.12791  -0.05165   0.00054
   0.12791   0.05165   0.00054
   0.12791  -0.05165  -0.00054
   0.13456   0.05661   0.00000
   0.13456  -0.05661  -0.00000
   0.13456   0.05661   0.00000
   0.13456  -0.05661  -0.00000
 vibration     4
   0.00294  -0.00099   0.14139
   0.00294  -0.00099   0.14139
   0.00294  -0.00099   0.14139
   0.00294  -0.00099   0.14139
   0.00294  -0.00099   0.14139
   0.00294  -0.00099   0.14139
   0.00294  -0.00099   0.14139
   0.00294  -0.00099   0.14139
   0.00294  -0.00099   0.14139
   0.00294  -0.00099   0.14139
   0.00294  -0.00099   0.14139
   0.00294  -0.00099   0.14139
   0.00294  -0.00099   0.14139
   0.00294  -0.00099   0.14139
   0.00294  -0.00099   0.14139
   0.00294  -0.00099   0.14139
   0.00294  -0.00099   0.14139
   0.00294  -0.00099   0.14139
   0.00294  -0.00099   0.14139
   0.00294  -0.00099   0.14139
   0.00294  -0.00099   0.14139
   0.00294  -0.00099   0.14139
   0.00294  -0.00099   0.14139
   0.00294  -0.00099   0.14139
   0.00294  -0.00099   0.14139
   0.00294  -0.00099   0.14139
   0.00294  -0.00099   0.14139
   0.00294  -0.00099   0.14139
   0.00294  -0.00099   0.14139
   0.00294  -0.00099   0.14139
   0.00294  -0.00099   0.14139
   0.00294  -0.00099   0.14139
   0.00294  -0.00099   0.14139
   0.00294  -0.00099   0.14139
   0.00294  -0.00099   0.14139
   0.00294  -0.00099   0.14139
   0.00294  -0.00099   0.14139
   0.00294  -0.00099   0.14139
   0.00294  -0.00099   0.14139
   0.00294  -0.00099   0.14139
   0.00294  -0.00099   0.14139
   0.00294  -0.00099   0.14139
   0.00294  -0.00099   0.14139
   0.00294  -0.00099   0.14139
   0.00294  -0.00099   0.14139
   0.00294  -0.00099   0.14139
   0.00294  -0.00099   0.14139
   0.00294  -0.00099   0.14139
   0.00294  -0.00099   0.14139
   0.00294  -0.00099   0.14139
 vibration     5
  -0.13573   0.03958   0.00310
  -0.13573   0.03958   0.00310
  -0.13573   0.03958   0.00310
  -0.13573   0.03958   0.00310
  -0.13573   0.03958   0.00310
  -0.13573   0.03958   0.00310
  -0.13573   0.03958   0.00310
  -0.13573   0.03958   0.00310
  -0.13573   0.03958   0.00310
  -0.13573   0.03958   0.00310
  -0.13573   0.03958   0.00310
  -0.13573   0.03958   0.00310
  -0.13573   0.03958   0.00310
  -0.13573   0.03958   0.00310
  -0.13573   0.03958   0.00310
  -0.13573   0.03958   0.00310
  -0.13573   0.03958   0.00310
  -0.13573   0.03958   0.00310
  -0.13573   0.03958   0.00310
  -0.13573   0.03958   0.00310
  -0.13573   0.03958   0.00310
  -0.13573   0.03958   0.00310
  -0.13573   0.03958   0.00310
  -0.13573   0.03958   0.00310
  -0.13573   0.03958   0.00310
  -0.13573   0.03958   0.00310
  -0.13573   0.03958   0.00310
  -0.13573   0.03958   0.00310
  -0.13573   0.03958   0.00310
  -0.13573   0.03958   0.00310
  -0.13573   0.03958   0.00310
  -0.13573   0.03958   0.00310
  -0.13573   0.03958   0.00310
  -0.13573   0.03958   0.00310
  -0.13573   0.03958   0.00310
  -0.13573   0.03958   0.00310
  -0.13573   0.03958   0.00310
  -0.13573   0.03958   0.00310
  -0.13573   0.03958   0.00310
  -0.13573   0.03958   0.00310
  -0.13573   0.03958   0.00310
  -0.13573   0.03958   0.00310
  -0.13573   0.03958   0.00310
  -0.13573   0.03958   0.00310
  -0.13573   0.03958   0.00310
  -0.13573   0.03958   0.00310
  -0.13573   0.03958   0.00310
  -0.13573   0.03958   0.00310
  -0.13573   0.03958   0.00310
  -0.13573   0.03958   0.00310
 vibration     6
   0.03960   0.13576   0.00013
   0.03960   0.13576   0.00013
   0.03960   0.13576   0.00013
   0.03960   0.13576   0.00013
   0.03960   0.13576   0.00013
   0.03960   0.13576   0.00013
   0.03960   0.13576   0.00013
   0.03960   0.13576   0.00013
   0.03960   0.13576   0.00013
   0.03960   0.13576   0.00013
   0.03960   0.13576   0.00013
   0.03960   0.13576   0.00013
   0.03960   0.13576   0.00013
   0.03960   0.13576   0.00013
   0.03960   0.13576   0.00013
   0.03960   0.13576   0.00013
   0.03960   0.13576   0.00013
   0.03960   0.13576   0.00013
   0.03960   0.13576   0.00013
   0.03960   0.13576   0.00013
   0.03960   0.13576   0.00013
   0.03960   0.13576   0.00013
   0.03960   0.13576   0.00013
   0.03960   0.13576   0.00013
   0.03960   0.13576   0.00013
   0.03960   0.13576   0.00013
   0.03960   0.13576   0.00013
   0.03960   0.13576   0.00013
   0.03960   0.13576   0.00013
   0.03960   0.13576   0.00013
   0.03960   0.13576   0.00013
   0.03960   0.13576   0.00013
   0.03960   0.13576   0.00013
   0.03960   0.13576   0.00013
   0.03960   0.13576   0.00013
   0.03960   0.13576   0.00013
   0.03960   0.13576   0.00013
   0.03960   0.13576   0.00013
   0.03960   0.13576   0.00013
   0.03960   0.13576   0.00013
   0.03960   0.13576   0.00013
   0.03960   0.13576   0.00013
   0.03960   0.13576   0.00013
   0.03960   0.13576   0.00013
   0.03960   0.13576   0.00013
   0.03960   0.13576   0.00013
   0.03960   0.13576   0.00013
   0.03960   0.13576   0.00013
   0.03960   0.13576   0.00013
   0.03960   0.13576   0.00013
 vibration     7
   0.21098  -0.00000  -0.00000
  -0.21098   0.00000   0.00000
  -0.08995  -0.01192  -0.00000
  -0.08995   0.01192  -0.00000
   0.08995   0.01192   0.00000
   0.08995  -0.01192   0.00000
   0.57345   0.00000   0.00000
  -0.57345  -0.00000  -0.00000
   0.25570   0.00000   0.00000
  -0.25570  -0.00000  -0.00000
   0.01150  -0.00406   0.00000
   0.01150   0.00406   0.00000
  -0.01150   0.00406  -0.00000
  -0.01150  -0.00406  -0.00000
   0.03976  -0.04327   0.00000
   0.03976   0.04327   0.00000
  -0.03976   0.04327  -0.00000
  -0.03976  -0.04327  -0.00000
  -0.02034   0.00418  -0.00313
  -0.02034  -0.00418   0.00313
   0.02034  -0.00418  -0.00313
   0.02034   0.00418   0.00313
   0.02034  -0.00418   0.00313
   0.02034   0.00418  -0.00313
  -0.02034   0.00418   0.00313
  -0.02034  -0.00418  -0.00313
   0.03580  -0.06741   0.00000
   0.03580   0.06741   0.00000
  -0.03580   0.06741  -0.00000
  -0.03580  -0.06741  -0.00000
  -0.05613   0.03599   0.00124
  -0.05613  -0.03599  -0.00124
   0.05613  -0.03599   0.00124
   0.05613   0.03599  -0.00124
   0.05613  -0.03599  -0.00124
   0.05613   0.03599   0.00124
  -0.05613   0.03599  -0.00124
  -0.05613  -0.03599   0.00124
   0.00450   0.03357  -0.00146
   0.00450  -0.03357   0.00146
  -0.00450  -0.03357  -0.00146
  -0.00450   0.03357   0.00146
  -0.00450  -0.03357   0.00146
  -0.00450   0.03357  -0.00146
   0.00450   0.03357   0.00146
   0.00450  -0.03357  -0.00146
   0.00937  -0.02841  -0.00000
   0.00937   0.02841  -0.00000
  -0.00937   0.02841   0.00000
  -0.00937  -0.02841   0.00000
 vibration     8
  -0.00000   0.00000  -0.55812
   0.00000  -0.00000   0.55812
  -0.00000  -0.00000   0.07486
   0.00000  -0.00000   0.07486
   0.00000   0.00000  -0.07486
  -0.00000   0.00000  -0.07486
  -0.00000   0.00000   0.26581
   0.00000  -0.00000  -0.26581
  -0.00000   0.00000  -0.18558
   0.00000  -0.00000   0.18558
  -0.00000   0.00000  -0.01501
   0.00000   0.00000  -0.01501
   0.00000  -0.00000   0.01501
  -0.00000  -0.00000   0.01501
  -0.00000   0.00000  -0.04067
   0.00000   0.00000  -0.04067
   0.00000  -0.00000   0.04067
  -0.00000  -0.00000   0.04067
   0.02258  -0.02832   0.04077
  -0.02258  -0.02832   0.04077
   0.02258  -0.02832  -0.04077
  -0.02257  -0.02832  -0.04077
  -0.02258   0.02832  -0.04077
   0.02258   0.02832  -0.04077
  -0.02258   0.02832   0.04077
   0.02257   0.02832   0.04077
  -0.00000   0.00000  -0.03221
   0.00000   0.00000  -0.03221
   0.00000  -0.00000   0.03221
  -0.00000  -0.00000   0.03221
  -0.00246   0.05067   0.07253
   0.00246   0.05067   0.07253
  -0.00246   0.05067  -0.07253
   0.00246   0.05067  -0.07253
   0.00246  -0.05067  -0.07253
  -0.00246  -0.05067  -0.07253
   0.00246  -0.05067   0.07253
  -0.00246  -0.05067   0.07253
   0.01709  -0.03952  -0.05911
  -0.01709  -0.03952  -0.05911
   0.01709  -0.03952   0.05911
  -0.01709  -0.03952   0.05911
  -0.01709   0.03952   0.05911
   0.01709   0.03952   0.05911
  -0.01709   0.03952  -0.05911
   0.01709   0.03952  -0.05911
  -0.00000   0.00000   0.02945
   0.00000   0.00000   0.02945
   0.00000  -0.00000  -0.02945
  -0.00000  -0.00000  -0.02945
 vibration     9
   0.00000  -0.00000   0.19027
   0.00000  -0.00000   0.19027
  -0.00000   0.00000  -0.15151
  -0.00000   0.00000  -0.15151
  -0.00000   0.00000  -0.15151
  -0.00000   0.00000  -0.15151
   0.00000   0.00000   0.04156
   0.00000   0.00000   0.04156
   0.00000  -0.00000  -0.07177
   0.00000  -0.00000  -0.07177
   0.00000   0.00000  -0.16123
  -0.00000   0.00000  -0.16123
   0.00000   0.00000  -0.16123
  -0.00000   0.00000  -0.16123
   0.00000   0.00000  -0.11341
  -0.00000   0.00000  -0.11341
   0.00000   0.00000  -0.11341
  -0.00000   0.00000  -0.11341
  -0.00885   0.00461  -0.16677
   0.00885   0.00461  -0.16677
   0.00885  -0.00461  -0.16677
  -0.00885  -0.00461  -0.16677
  -0.00885   0.00461  -0.16677
   0.00885   0.00461  -0.16677
   0.00885  -0.00461  -0.16677
  -0.00885  -0.00461  -0.16677
   0.00000   0.00000  -0.11228
  -0.00000   0.00000  -0.11228
   0.00000   0.00000  -0.11228
  -0.00000   0.00000  -0.11228
   0.00432   0.02288  -0.10107
  -0.00432   0.02288  -0.10107
  -0.00432  -0.02288  -0.10107
   0.00432  -0.02288  -0.10107
   0.00432   0.02288  -0.10107
  -0.00432   0.02288  -0.10107
  -0.00432  -0.02288  -0.10107
   0.00432  -0.02288  -0.10107
  -0.00521  -0.01968  -0.16276
   0.00521  -0.01968  -0.16276
   0.00521   0.01968  -0.16276
  -0.00521   0.01968  -0.16276
  -0.00521  -0.01968  -0.16276
   0.00521  -0.01968  -0.16276
   0.00521   0.01968  -0.16276
  -0.00521   0.01968  -0.16276
   0.00000   0.00000  -0.15132
  -0.00000   0.00000  -0.15132
   0.00000   0.00000  -0.15132
  -0.00000   0.00000  -0.15132
 vibration    10
   0.00000  -0.02424  -0.00000
  -0.00000   0.02424   0.00000
   0.20728  -0.00460   0.00000
  -0.20728  -0.00460   0.00000
  -0.20728   0.00460  -0.00000
   0.20728   0.00460  -0.00000
   0.00000  -0.07282   0.00000
  -0.00000   0.07282  -0.00000
   0.00000  -0.35174   0.00000
  -0.00000   0.35174  -0.00000
   0.03273  -0.01464   0.00000
  -0.03273  -0.01464   0.00000
  -0.03273   0.01464  -0.00000
   0.03273   0.01464  -0.00000
   0.09286  -0.11607   0.00000
  -0.09286  -0.11607   0.00000
  -0.09286   0.11607  -0.00000
   0.09286   0.11607  -0.00000
  -0.06262  -0.00193   0.00038
   0.06262  -0.00193   0.00038
   0.06262   0.00194   0.00038
  -0.06262   0.00193   0.00038
   0.06262   0.00193  -0.00038
  -0.06262   0.00193  -0.00038
  -0.06262  -0.00194  -0.00038
   0.06262  -0.00193  -0.00038
   0.08383  -0.17253   0.00000
  -0.08383  -0.17253   0.00000
  -0.08383   0.17253  -0.00000
   0.08383   0.17253  -0.00000
  -0.11859   0.10360   0.00069
   0.11859   0.10360   0.00069
   0.11859  -0.10360   0.00069
  -0.11859  -0.10360   0.00069
   0.11859  -0.10360  -0.00069
  -0.11859  -0.10360  -0.00069
  -0.11859   0.10360  -0.00069
   0.11859   0.10360  -0.00069
  -0.00814   0.09138  -0.00262
   0.00814   0.09138  -0.00262
   0.00814  -0.09138  -0.00262
  -0.00814  -0.09138  -0.00262
   0.00814  -0.09138   0.00262
  -0.00814  -0.09138   0.00262
  -0.00814   0.09138   0.00262
   0.00814   0.09138   0.00262
   0.02808  -0.08339   0.00000
  -0.02808  -0.08339   0.00000
  -0.02808   0.08339  -0.00000
   0.02808   0.08339  -0.00000
 vibration    11
  -0.00000   0.42860   0.00000
   0.00000  -0.42860  -0.00000
   0.16456  -0.34523  -0.00000
  -0.16456  -0.34523   0.00000
  -0.16456   0.34523   0.00000
   0.16456   0.34523  -0.00000
   0.00000  -0.00767  -0.00000
  -0.00000   0.00767   0.00000
  -0.00000   0.12813   0.00000
   0.00000  -0.12813  -0.00000
   0.00347  -0.00365   0.00000
  -0.00347  -0.00365  -0.00000
  -0.00347   0.00365  -0.00000
   0.00347   0.00365   0.00000
  -0.01461  -0.00242   0.00000
   0.01461  -0.00242   0.00000
   0.01461   0.00242  -0.00000
  -0.01461   0.00242  -0.00000
  -0.00453   0.00050   0.00087
   0.00453   0.00050   0.00087
   0.00453  -0.00050   0.00087
  -0.00453  -0.00050   0.00087
   0.00453  -0.00050  -0.00087
  -0.00453  -0.00050  -0.00087
  -0.00453   0.00050  -0.00087
   0.00453   0.00050  -0.00087
  -0.01163   0.02150   0.00000
   0.01163   0.02150   0.00000
   0.01163  -0.02150  -0.00000
  -0.01163  -0.02150  -0.00000
   0.02739   0.00671  -0.00163
  -0.02739   0.00671  -0.00163
  -0.02739  -0.00671  -0.00163
   0.02739  -0.00671  -0.00163
  -0.02739  -0.00671   0.00163
   0.02739  -0.00671   0.00163
   0.02739   0.00671   0.00163
  -0.02739   0.00671   0.00163
  -0.00457   0.02113   0.00087
   0.00457   0.02113   0.00087
   0.00457  -0.02113   0.00087
  -0.00457  -0.02113   0.00087
   0.00457  -0.02113  -0.00087
  -0.00457  -0.02113  -0.00087
  -0.00457   0.02113  -0.00087
   0.00457   0.02113  -0.00087
   0.00422  -0.01459  -0.00000
  -0.00422  -0.01459   0.00000
  -0.00422   0.01459   0.00000
   0.00422   0.01459  -0.00000
 vibration    12
   0.00000   0.00062  -0.00000
   0.00000   0.00062  -0.00000
  -0.09951   0.02113  -0.00000
   0.09950   0.02113   0.00000
  -0.09951   0.02113  -0.00000
   0.09950   0.02113   0.00000
   0.00000   0.04556  -0.00000
   0.00000   0.04556  -0.00000
   0.00000  -0.19618   0.00000
   0.00000  -0.19618   0.00000
   0.09842   0.11901  -0.00000
  -0.09842   0.11901   0.00000
   0.09842   0.11901  -0.00000
  -0.09842   0.11901   0.00000
   0.13221   0.07536  -0.00000
  -0.13221   0.07536   0.00000
   0.13221   0.07536  -0.00000
  -0.13221   0.07536   0.00000
   0.10890   0.12294   0.00095
  -0.10890   0.12294   0.00095
   0.10890   0.12294  -0.00095
  -0.10890   0.12294  -0.00095
   0.10890   0.12294   0.00095
  -0.10890   0.12294   0.00095
   0.10890   0.12294  -0.00095
  -0.10890   0.12294  -0.00095
   0.12813   0.04985  -0.00000
  -0.12813   0.04985   0.00000
   0.12813   0.04985  -0.00000
  -0.12813   0.04985   0.00000
   0.14359   0.08151   0.00038
  -0.14359   0.08151   0.00038
   0.14359   0.08151  -0.00038
  -0.14359   0.08151  -0.00038
   0.14359   0.08151   0.00038
  -0.14359   0.08151   0.00038
   0.14359   0.08151  -0.00038
  -0.14359   0.08151  -0.00038
   0.08035   0.08294  -0.00089
  -0.08035   0.08294  -0.00089
   0.08035   0.08294   0.00089
  -0.08035   0.08294   0.00089
   0.08035   0.08294  -0.00089
  -0.08035   0.08294  -0.00089
   0.08035   0.08294   0.00089
  -0.08035   0.08294   0.00089
   0.09842   0.09288  -0.00000
  -0.09842   0.09288   0.00000
   0.09842   0.09288  -0.00000
  -0.09842   0.09288   0.00000
 vibration    13
  -0.00000  -0.00000   0.00000
   0.00000   0.00000  -0.00000
  -0.00000   0.00000  -0.16005
   0.00000   0.00000   0.16005
   0.00000  -0.00000   0.16005
  -0.00000  -0.00000  -0.16005
   0.00000   0.00000  -0.00000
  -0.00000  -0.00000   0.00000
  -0.00000  -0.00000  -0.00000
   0.00000   0.00000   0.00000
   0.00000  -0.00000   0.02876
  -0.00000  -0.00000  -0.02876
  -0.00000   0.00000  -0.02876
   0.00000   0.00000   0.02876
  -0.00000   0.00000  -0.08816
  -0.00000  -0.00000   0.08816
   0.00000  -0.00000   0.08816
   0.00000   0.00000  -0.08816
  -0.09604   0.08187  -0.11149
  -0.09604  -0.08187   0.11149
  -0.09604   0.08187   0.11149
  -0.09604  -0.08187  -0.11149
   0.09604  -0.08187   0.11149
   0.09604   0.08187  -0.11149
   0.09604  -0.08187  -0.11149
   0.09604   0.08187   0.11149
  -0.00000   0.00000  -0.14834
  -0.00000  -0.00000   0.14834
   0.00000  -0.00000   0.14834
   0.00000   0.00000  -0.14834
   0.04356  -0.05565   0.03936
   0.04356   0.05565  -0.03936
   0.04356  -0.05565  -0.03936
   0.04356   0.05565   0.03936
  -0.04356   0.05565  -0.03936
  -0.04356  -0.05565   0.03936
  -0.04356   0.05565   0.03936
  -0.04356  -0.05565  -0.03936
  -0.07726   0.06344   0.20648
  -0.07726  -0.06344  -0.20648
  -0.07726   0.06344  -0.20648
  -0.07726  -0.06344   0.20648
   0.07726  -0.06344  -0.20648
   0.07726   0.06344   0.20648
   0.07726  -0.06344   0.20648
   0.07726   0.06344  -0.20648
   0.00000   0.00000  -0.13684
  -0.00000  -0.00000   0.13684
  -0.00000  -0.00000   0.13684
   0.00000   0.00000  -0.13684
 vibration    14
  -0.00000   0.00000   0.02153
   0.00000  -0.00000  -0.02153
   0.00000  -0.00000  -0.12462
  -0.00000  -0.00000  -0.12462
  -0.00000   0.00000   0.12462
   0.00000   0.00000   0.12462
   0.00000  -0.00000  -0.02073
  -0.00000   0.00000   0.02073
  -0.00000  -0.00000  -0.29223
   0.00000   0.00000   0.29223
   0.00000  -0.00000  -0.02082
  -0.00000  -0.00000  -0.02081
  -0.00000   0.00000   0.02082
   0.00000   0.00000   0.02081
   0.00000   0.00000  -0.16620
   0.00000  -0.00000  -0.16621
  -0.00000  -0.00000   0.16620
  -0.00000   0.00000   0.16621
  -0.06416  -0.00163   0.00137
   0.06417  -0.00162   0.00136
  -0.06416  -0.00163  -0.00137
   0.06417  -0.00162  -0.00136
   0.06416   0.00163  -0.00137
  -0.06417   0.00162  -0.00136
   0.06416   0.00163   0.00137
  -0.06417   0.00162   0.00136
   0.00000   0.00000  -0.17313
   0.00000   0.00000  -0.17313
  -0.00000  -0.00000   0.17313
  -0.00000  -0.00000   0.17313
   0.01570   0.01869   0.17240
  -0.01570   0.01869   0.17240
   0.01570   0.01869  -0.17240
  -0.01570   0.01869  -0.17240
  -0.01570  -0.01869  -0.17240
   0.01570  -0.01869  -0.17240
  -0.01570  -0.01869   0.17240
   0.01570  -0.01869   0.17240
  -0.05545   0.00161   0.14627
   0.05545   0.00161   0.14628
  -0.05545   0.00161  -0.14627
   0.05545   0.00161  -0.14628
   0.05545  -0.00161  -0.14627
  -0.05545  -0.00161  -0.14628
   0.05545  -0.00161   0.14627
  -0.05545  -0.00161   0.14628
   0.00000  -0.00000  -0.12436
   0.00000  -0.00000  -0.12436
  -0.00000   0.00000   0.12436
  -0.00000   0.00000   0.12436
 vibration    15
  -0.00000  -0.00000   0.00000
  -0.00000  -0.00000   0.00000
   0.00000  -0.00000  -0.17128
   0.00000   0.00000   0.17128
   0.00000  -0.00000  -0.17128
   0.00000   0.00000   0.17128
  -0.00000   0.00000   0.00000
  -0.00000   0.00000   0.00000
  -0.00000   0.00000  -0.00000
  -0.00000   0.00000  -0.00000
  -0.00000  -0.00000  -0.18389
  -0.00000   0.00000   0.18389
  -0.00000  -0.00000  -0.18389
  -0.00000   0.00000   0.18389
  -0.00000  -0.00000  -0.06795
  -0.00000   0.00000   0.06795
  -0.00000  -0.00000  -0.06795
  -0.00000   0.00000   0.06795
  -0.01439   0.00187  -0.18951
  -0.01439  -0.00187   0.18951
   0.01439  -0.00187  -0.18951
   0.01439   0.00187   0.18951
  -0.01439   0.00187  -0.18951
  -0.01439  -0.00187   0.18951
   0.01439  -0.00187  -0.18951
   0.01439   0.00187   0.18951
  -0.00000  -0.00000  -0.04211
  -0.00000   0.00000   0.04211
  -0.00000  -0.00000  -0.04211
  -0.00000   0.00000   0.04211
   0.02372   0.05286  -0.04380
   0.02372  -0.05286   0.04380
  -0.02372  -0.05286  -0.04380
  -0.02372   0.05286   0.04380
   0.02372   0.05286  -0.04380
   0.02372  -0.05286   0.04380
  -0.02372  -0.05286  -0.04380
  -0.02372   0.05286   0.04380
  -0.01024  -0.04135  -0.18439
  -0.01024   0.04135   0.18439
   0.01024   0.04135  -0.18439
   0.01024  -0.04135   0.18439
  -0.01024  -0.04135  -0.18439
  -0.01024   0.04135   0.18439
   0.01024   0.04135  -0.18439
   0.01024  -0.04135   0.18439
  -0.00000  -0.00000  -0.16135
  -0.00000   0.00000   0.16135
  -0.00000  -0.00000  -0.16135
  -0.00000   0.00000   0.16135
 vibration    16
   0.00000  -0.00000   0.02748
   0.00000  -0.00000   0.02748
  -0.00000   0.00000   0.10282
  -0.00000  -0.00000   0.10282
  -0.00000   0.00000   0.10282
  -0.00000  -0.00000   0.10282
   0.00000   0.00000   0.01515
   0.00000   0.00000   0.01515
   0.00000  -0.00000  -0.30932
   0.00000  -0.00000  -0.30932
   0.00000   0.00000   0.11050
   0.00000  -0.00000   0.11050
   0.00000   0.00000   0.11050
   0.00000  -0.00000   0.11050
   0.00000   0.00000  -0.11831
   0.00000  -0.00000  -0.11831
   0.00000   0.00000  -0.11831
   0.00000  -0.00000  -0.11831
   0.02743   0.00160   0.11792
  -0.02742   0.00159   0.11792
  -0.02742  -0.00159   0.11792
   0.02743  -0.00159   0.11792
   0.02743   0.00160   0.11792
  -0.02742   0.00159   0.11792
  -0.02742  -0.00159   0.11792
   0.02743  -0.00159   0.11792
   0.00000   0.00000  -0.13189
   0.00000  -0.00000  -0.13189
   0.00000   0.00000  -0.13189
   0.00000  -0.00000  -0.13189
  -0.02698  -0.10502  -0.17340
   0.02698  -0.10502  -0.17340
   0.02698   0.10502  -0.17340
  -0.02698   0.10502  -0.17340
  -0.02698  -0.10502  -0.17340
   0.02698  -0.10502  -0.17340
   0.02698   0.10502  -0.17340
  -0.02698   0.10502  -0.17340
   0.03408   0.07408   0.09391
  -0.03408   0.07407   0.09391
  -0.03408  -0.07407   0.09392
   0.03408  -0.07408   0.09391
   0.03408   0.07408   0.09391
  -0.03408   0.07407   0.09391
  -0.03408  -0.07407   0.09392
   0.03408  -0.07408   0.09391
   0.00000   0.00000   0.05992
   0.00000  -0.00000   0.05992
   0.00000   0.00000   0.05992
   0.00000  -0.00000   0.05992
 vibration    17
   0.04242  -0.00000  -0.00000
   0.04242  -0.00000  -0.00000
  -0.15302   0.03849  -0.00000
  -0.15302  -0.03849   0.00000
  -0.15302   0.03849  -0.00000
  -0.15302  -0.03849   0.00000
   0.02012   0.00000  -0.00000
   0.02012   0.00000  -0.00000
   0.05433   0.00000   0.00000
   0.05433   0.00000   0.00000
   0.10170   0.11748  -0.00000
   0.10170  -0.11748   0.00000
   0.10170   0.11748  -0.00000
   0.10170  -0.11748   0.00000
   0.12060   0.08978   0.00000
   0.12060  -0.08978   0.00000
   0.12060   0.08978   0.00000
   0.12060  -0.08978   0.00000
   0.10875   0.12080   0.00008
   0.10875  -0.12080  -0.00008
   0.10875   0.12080  -0.00008
   0.10875  -0.12080   0.00008
   0.10875   0.12080   0.00008
   0.10875  -0.12080  -0.00008
   0.10875   0.12080  -0.00008
   0.10875  -0.12080   0.00008
   0.11824   0.07672   0.00000