
     Program PHONON v.7.1 starts on 30Aug2023 at 16:34:47 

     This program is part of the open-source Quantum ESPRESSO suite
     for quantum simulation of materials; please cite
         "P. Giannozzi et al., J. Phys.:Condens. Matter 21 395502 (2009);
         "P. Giannozzi et al., J. Phys.:Condens. Matter 29 465901 (2017);
         "P. Giannozzi et al., J. Chem. Phys. 152 154105 (2020);
          URL http://www.quantum-espresso.org", 
     in publications or presentations arising from this work. More details at
     http://www.quantum-espresso.org/quote

     Parallel version (MPI), running on   168 processors

     MPI processes distributed on     3 nodes
     K-points division:     npool     =       4
     R & G space division:  proc/nbgrp/npool/nimage =      42
     118352 MiB available memory on the printing compute node when the environment starts
 
     Waiting for input...
     Reading input from standard input
      Title line not specified: using 'default'.
     Run is not recoverable starting from scratch

     Reading xml data from directory:

     ./scf1.save/

     IMPORTANT: XC functional enforced from input :
     Exchange-correlation= PBE
                           (   1   4   3   4   0   0   0)
     Any further DFT definition will be discarded
     Please, verify this is what you really want

 
     Parallelization info
     --------------------
     sticks:   dense  smooth     PW     G-vecs:    dense   smooth      PW
     Min         189     189     55                 6555     6555    1039
     Max         190     190     56                 6556     6556    1042
     Sum        7949    7949   2331               275321   275321   43683
 
     Using Pencil Decomposition
 
     Reading collected, re-writing distributed wavefunctions
  autoval = -.3154E+02
     Irreps are as follows:

                     mode #   1
                     (   0.00000   0.00000   ) 
                     (   0.00000   0.00000   ) 
                     (   0.00000   0.00000   ) 
                     (   0.00000   0.00000   ) 
                     (   0.00000   0.00000   ) 
                     (   0.00000   0.00000   ) 
                     (   0.00000   0.00000   ) 
                     (   0.00000   0.00000   ) 
                     (   0.00000   0.00000   ) 
                     (   0.00000   0.00000   ) 
                     (   0.00000   0.00000   ) 
                     (   0.00000   0.00000   ) 
                     (   0.00000   0.00000   ) 
                     (   0.00000   0.00000   ) 
                     (   0.00000   0.00000   ) 
                     (   0.00000   0.00000   ) 
                     (   0.00000   0.00000   ) 
                     (   0.00000   0.00000   ) 
                     (  -0.00000   0.00000   ) 
                     (  -0.00000   0.00000   ) 
                     (  -0.70711   0.00000   ) 
                     (   0.00000   0.00000   ) 
                     (   0.00000   0.00000   ) 
                     (   0.70711   0.00000   ) 
                     (   0.00000   0.00000   ) 
                     (   0.00000   0.00000   ) 
                     (   0.00000   0.00000   ) 
                     (   0.00000   0.00000   ) 
                     (   0.00000   0.00000   ) 
                     (   0.00000   0.00000   ) 
                     (   0.00000   0.00000   ) 
                     (   0.00000   0.00000   ) 
                     (   0.00000   0.00000   ) 
                     (   0.00000   0.00000   ) 
                     (   0.00000   0.00000   ) 
                     (   0.00000   0.00000   ) 
                     (   0.00000   0.00000   ) 
                     (   0.00000   0.00000   ) 
                     (   0.00000   0.00000   ) 
                     (   0.00000   0.00000   ) 
                     (   0.00000   0.00000   ) 
                     (   0.00000   0.00000   ) 
                     (   0.00000   0.00000   ) 
                     (   0.00000   0.00000   ) 
                     (   0.00000   0.00000   ) 
                     (   0.00000   0.00000   ) 
                     (   0.00000   0.00000   ) 
                     (   0.00000   0.00000   ) 
                     (   0.00000   0.00000   ) 
                     (   0.00000   0.00000   ) 
                     (   0.00000   0.00000   ) 
                     (   0.00000   0.00000   ) 
                     (   0.00000   0.00000   ) 
                     (   0.00000   0.00000   ) 
                     (   0.00000   0.00000   ) 
                     (   0.00000   0.00000   ) 
                     (   0.00000   0.00000   ) 
                     (   0.00000   0.00000   ) 
                     (   0.00000   0.00000   ) 
                     (   0.00000   0.00000   ) 
                     (   0.00000   0.00000   ) 
                     (   0.00000   0.00000   ) 
                     (   0.00000   0.00000   ) 
                     (   0.00000   0.00000   ) 
                     (   0.00000   0.00000   ) 
                     (   0.00000   0.00000   ) 
                     (   0.00000   0.00000   ) 
                     (   0.00000   0.00000   ) 
                     (   0.00000   0.00000   ) 
                     (   0.00000   0.00000   ) 
                     (   0.00000   0.00000   ) 
                     (   0.00000   0.00000   ) 
                     (   0.00000   0.00000   ) 
                     (   0.00000   0.00000   ) 
                     (   0.00000   0.00000   ) 
                     (   0.00000   0.00000   ) 
                     (   0.00000   0.00000   ) 
                     (   0.00000   0.00000   ) 
                     (   0.00000   0.00000   ) 
                     (   0.00000   0.00000   ) 
                     (   0.00000   0.00000   ) 
                     (   0.00000   0.00000   ) 
                     (   0.00000   0.00000   ) 
                     (   0.00000   0.00000   ) 
                     (   0.00000   0.00000   ) 
                     (   0.00000   0.00000   ) 
                     (   0.00000   0.00000   ) 
                     (   0.00000   0.00000   ) 
                     (   0.00000   0.00000   ) 
                     (   0.00000   0.00000   ) 
                     (   0.00000   0.00000   ) 
                     (   0.00000   0.00000   ) 
                     (   0.00000   0.00000   ) 
                     (   0.00000   0.00000   ) 
                     (   0.00000   0.00000   ) 
                     (   0.00000   0.00000   ) 
                     (   0.00000   0.00000   ) 
                     (   0.00000   0.00000   ) 
                     (   0.00000   0.00000   ) 
                     (   0.00000   0.00000   ) 
                     (   0.00000   0.00000   ) 
                     (   0.00000   0.00000   ) 
                     (   0.00000   0.00000   ) 
                     (   0.00000   0.00000   ) 
                     (   0.00000   0.00000   ) 
                     (   0.00000   0.00000   ) 
                     (   0.00000   0.00000   ) 
                     (   0.00000   0.00000   ) 
                     (   0.00000   0.00000   ) 
                     (   0.00000   0.00000   ) 
                     (   0.00000   0.00000   ) 
                     (   0.00000   0.00000   ) 
                     (   0.00000   0.00000   ) 
                     (   0.00000   0.00000   ) 
                     (   0.00000   0.00000   ) 
                     (   0.00000   0.00000   ) 
                     (   0.00000   0.00000   ) 
                     (   0.00000   0.00000   ) 
                     (   0.00000   0.00000   ) 
                     (   0.00000   0.00000   ) 
                     (   0.00000   0.00000   ) 
                     (   0.00000   0.00000   ) 
                     (   0.00000   0.00000   ) 
                     (   0.00000   0.00000   ) 
                     (   0.00000   0.00000   ) 
                     (   0.00000   0.00000   ) 
                     (   0.00000   0.00000   ) 
                     (   0.00000   0.00000   ) 
                     (   0.00000   0.00000   ) 
                     (   0.00000   0.00000   ) 
                     (   0.00000   0.00000   ) 
                     (   0.00000   0.00000   ) 
                     (   0.00000   0.00000   ) 
                     (   0.00000   0.00000   ) 
                     (   0.00000   0.00000   ) 
                     (   0.00000   0.00000   ) 
                     (   0.00000   0.00000   ) 
                     (   0.00000   0.00000   ) 
                     (   0.00000   0.00000   ) 
                     (   0.00000   0.00000   ) 
                     (   0.00000   0.00000   ) 
                     (   0.00000   0.00000   ) 
                     (   0.00000   0.00000   ) 
                     (   0.00000   0.00000   ) 
                     (   0.00000   0.00000   ) 
                     (   0.00000   0.00000   ) 
                     (   0.00000   0.00000   ) 
                     (   0.00000   0.00000   ) 
                     (   0.00000   0.00000   ) 
                     (   0.00000   0.00000   ) 
  autoval = -.2047E+02
     Irreps are as follows:

                     mode #   2
                     (   0.00000   0.00000   ) 
                     (   0.00000   0.00000   ) 
                     (   0.00000   0.00000   ) 
                     (   0.00000   0.00000   ) 
                     (   0.00000   0.00000   ) 
                     (   0.00000   0.00000   ) 
                     (   0.00000   0.00000   ) 
                     (   0.00000   0.00000   ) 
                     (   0.00000   0.00000   ) 
                     (   0.00000   0.00000   ) 
                     (   0.00000   0.00000   ) 
                     (   0.00000   0.00000   ) 
                     (   0.00000   0.00000   ) 
                     (   0.00000   0.00000   ) 
                     (   0.00000   0.00000   ) 
                     (   0.00000   0.00000   ) 
                     (   0.00000   0.00000   ) 
                     (   0.00000   0.00000   ) 
                     (   0.00000   0.00000   ) 
                     (   0.00000   0.00000   ) 
                     (   0.00000   0.00000   ) 
                     (   0.00000   0.00000   ) 
                     (   0.00000   0.00000   ) 
                     (   0.00000   0.00000   ) 
                     (   0.00000   0.00000   ) 
                     (   0.00000   0.00000   ) 
                     (   0.00000   0.00000   ) 
                     (   0.00000   0.00000   ) 
                     (   0.00000   0.00000   ) 
                     (   0.00000   0.00000   ) 
                     (  -0.00000   0.00000   ) 
                     (  -0.00000   0.00000   ) 
                     (  -0.50000   0.00000   ) 
                     (  -0.00000   0.00000   ) 
                     (   0.00000   0.00000   ) 
                     (  -0.50000   0.00000   ) 
                     (  -0.00000   0.00000   ) 
                     (  -0.00000   0.00000   ) 
                     (  -0.50000   0.00000   ) 
                     (  -0.00000   0.00000   ) 
                     (   0.00000   0.00000   ) 
                     (  -0.50000   0.00000   ) 
                     (   0.00000   0.00000   ) 
                     (   0.00000   0.00000   ) 
                     (   0.00000   0.00000   ) 
                     (   0.00000   0.00000   ) 
                     (   0.00000   0.00000   ) 
                     (   0.00000   0.00000   ) 
                     (   0.00000   0.00000   ) 
                     (   0.00000   0.00000   ) 
                     (   0.00000   0.00000   ) 
                     (   0.00000   0.00000   ) 
                     (   0.00000   0.00000   ) 
                     (   0.00000   0.00000   ) 
                     (   0.00000   0.00000   ) 
                     (   0.00000   0.00000   ) 
                     (   0.00000   0.00000   ) 
                     (   0.00000   0.00000   ) 
                     (   0.00000   0.00000   ) 
                     (   0.00000   0.00000   ) 
                     (   0.00000   0.00000   ) 
                     (   0.00000   0.00000   ) 
                     (   0.00000   0.00000   ) 
                     (   0.00000   0.00000   ) 
                     (   0.00000   0.00000   ) 
                     (   0.00000   0.00000   ) 
                     (   0.00000   0.00000   ) 
                     (   0.00000   0.00000   ) 
                     (   0.00000   0.00000   ) 
                     (   0.00000   0.00000   ) 
                     (   0.00000   0.00000   ) 
                     (   0.00000   0.00000   ) 
                     (   0.00000   0.00000   ) 
                     (   0.00000   0.00000   ) 
                     (   0.00000   0.00000   ) 
                     (   0.00000   0.00000   ) 
                     (   0.00000   0.00000   ) 
                     (   0.00000   0.00000   ) 
                     (   0.00000   0.00000   ) 
                     (   0.00000   0.00000   ) 
                     (   0.00000   0.00000   ) 
                     (   0.00000   0.00000   ) 
                     (   0.00000   0.00000   ) 
                     (   0.00000   0.00000   ) 
                     (   0.00000   0.00000   ) 
                     (   0.00000   0.00000   ) 
                     (   0.00000   0.00000   ) 
                     (   0.00000   0.00000   ) 
                     (   0.00000   0.00000   ) 
                     (   0.00000   0.00000   ) 
                     (   0.00000   0.00000   ) 
                     (   0.00000   0.00000   ) 
                     (   0.00000   0.00000   ) 
                     (   0.00000   0.00000   ) 
                     (   0.00000   0.00000   ) 
                     (   0.00000   0.00000   ) 
                     (   0.00000   0.00000   ) 
                     (   0.00000   0.00000   ) 
                     (   0.00000   0.00000   ) 
                     (   0.00000   0.00000   ) 
                     (   0.00000   0.00000   ) 
                     (   0.00000   0.00000   ) 
                     (   0.00000   0.00000   ) 
                     (   0.00000   0.00000   ) 
                     (   0.00000   0.00000   ) 
                     (   0.00000   0.00000   ) 
                     (   0.00000   0.00000   ) 
                     (   0.00000   0.00000   ) 
                     (   0.00000   0.00000   ) 
                     (   0.00000   0.00000   ) 
                     (   0.00000   0.00000   ) 
                     (   0.00000   0.00000   ) 
                     (   0.00000   0.00000   ) 
                     (   0.00000   0.00000   ) 
                     (   0.00000   0.00000   ) 
                     (   0.00000   0.00000   ) 
                     (   0.00000   0.00000   ) 
                     (   0.00000   0.00000   ) 
                     (   0.00000   0.00000   ) 
                     (   0.00000   0.00000   ) 
                     (   0.00000   0.00000   ) 
                     (   0.00000   0.00000   ) 
                     (   0.00000   0.00000   ) 
                     (   0.00000   0.00000   ) 
                     (   0.00000   0.00000   ) 
                     (   0.00000   0.00000   ) 
                     (   0.00000   0.00000   ) 
                     (   0.00000   0.00000   ) 
                     (   0.00000   0.00000   ) 
                     (   0.00000   0.00000   ) 
                     (   0.00000   0.00000   ) 
                     (   0.00000   0.00000   ) 
                     (   0.00000   0.00000   ) 
                     (   0.00000   0.00000   ) 
                     (   0.00000   0.00000   ) 
                     (   0.00000   0.00000   ) 
                     (   0.00000   0.00000   ) 
                     (   0.00000   0.00000   ) 
                     (   0.00000   0.00000   ) 
                     (   0.00000   0.00000   ) 
                     (   0.00000   0.00000   ) 
                     (   0.00000   0.00000   ) 
                     (   0.00000   0.00000   ) 
                     (   0.00000   0.00000   ) 
                     (   0.00000   0.00000   ) 
                     (   0.00000   0.00000   ) 
                     (   0.00000   0.00000   ) 
                     (   0.00000   0.00000   ) 
                     (   0.00000   0.00000   ) 
                     (   0.00000   0.00000   ) 
  autoval = -.1880E+02
     Irreps are as follows:

                     mode #   3
                     (   0.00000   0.00000   ) 
                     (   0.00000   0.00000   ) 
                     (   0.00000   0.00000   ) 
                     (   0.00000   0.00000   ) 
                     (   0.00000   0.00000   ) 
                     (   0.00000   0.00000   ) 
                     (   0.00000   0.00000   ) 
                     (   0.00000   0.00000   ) 
                     (   0.00000   0.00000   ) 
                     (   0.00000   0.00000   ) 
                     (   0.00000   0.00000   ) 
                     (   0.00000   0.00000   ) 
                     (   0.00000   0.00000   ) 
                     (   0.00000   0.00000   ) 
                     (   0.00000   0.00000   ) 
                     (   0.00000   0.00000   ) 
                     (   0.00000   0.00000   ) 
                     (   0.00000   0.00000   ) 
                     (   0.00000   0.00000   ) 
                     (   0.00000   0.00000   ) 
                     (   0.00000   0.00000   ) 
                     (   0.00000   0.00000   ) 
                     (   0.00000   0.00000   ) 
                     (   0.00000   0.00000   ) 
                     (   0.00000   0.00000   ) 
                     (   0.00000   0.00000   ) 
                     (   0.00000   0.00000   ) 
                     (   0.00000   0.00000   ) 
                     (   0.00000   0.00000   ) 
                     (   0.00000   0.00000   ) 
                     (   0.00000   0.00000   ) 
                     (   0.00000   0.00000   ) 
                     (   0.00000   0.00000   ) 
                     (   0.00000   0.00000   ) 
                     (   0.00000   0.00000   ) 
                     (   0.00000   0.00000   ) 
                     (   0.00000   0.00000   ) 
                     (   0.00000   0.00000   ) 
                     (   0.00000   0.00000   ) 
                     (   0.00000   0.00000   ) 
                     (   0.00000   0.00000   ) 
                     (   0.00000   0.00000   ) 
                     (   0.00000   0.00000   ) 
                     (   0.00000   0.00000   ) 
                     (   0.00000   0.00000   ) 
                     (   0.00000   0.00000   ) 
                     (   0.00000   0.00000   ) 
                     (   0.00000   0.00000   ) 
                     (   0.00000   0.00000   ) 
                     (   0.00000   0.00000   ) 
                     (   0.00000   0.00000   ) 
                     (   0.00000   0.00000   ) 
                     (   0.00000   0.00000   ) 
                     (   0.00000   0.00000   ) 
                     (   0.00000   0.00000   ) 
                     (   0.00000   0.00000   ) 
                     (   0.00000   0.00000   ) 
                     (   0.00000   0.00000   ) 
                     (   0.00000   0.00000   ) 
                     (   0.00000   0.00000   ) 
                     (   0.00000   0.00000   ) 
                     (   0.00000   0.00000   ) 
                     (   0.00000   0.00000   ) 
                     (   0.00000   0.00000   ) 
                     (   0.00000   0.00000   ) 
                     (   0.00000   0.00000   ) 
                     (   0.00000   0.00000   ) 
                     (   0.00000   0.00000   ) 
                     (   0.00000   0.00000   ) 
                     (   0.00000   0.00000   ) 
                     (   0.00000   0.00000   ) 
                     (   0.00000   0.00000   ) 
                     (   0.00000   0.00000   ) 
                     (   0.00000   0.00000   ) 
                     (   0.00000   0.00000   ) 
                     (   0.00000   0.00000   ) 
                     (   0.00000   0.00000   ) 
                     (   0.00000   0.00000   ) 
                     (   0.00000   0.00000   ) 
                     (   0.00000   0.00000   ) 
                     (   0.00000   0.00000   ) 
                     (   0.00000   0.00000   ) 
                     (   0.00000   0.00000   ) 
                     (   0.00000   0.00000   ) 
                     (   0.00000   0.00000   ) 
                     (   0.00000   0.00000   ) 
                     (   0.00000   0.00000   ) 
                     (   0.00000   0.00000   ) 
                     (   0.00000   0.00000   ) 
                     (   0.00000   0.00000   ) 
                     (   0.00000   0.00000   ) 
                     (   0.00000   0.00000   ) 
                     (   0.00000   0.00000   ) 
                     (   0.00000   0.00000   ) 
                     (   0.00000   0.00000   ) 
                     (   0.00000   0.00000   ) 
                     (   0.00000   0.00000   ) 
                     (   0.00000   0.00000   ) 
                     (   0.00000   0.00000   ) 
                     (   0.00000   0.00000   ) 
                     (   0.00000   0.00000   ) 
                     (   0.00000   0.00000   ) 
                     (   0.00000   0.00000   ) 
                     (   0.00000   0.00000   ) 
                     (   0.00000   0.00000   ) 
                     (   0.00000   0.00000   ) 
                     (   0.00000   0.00000   ) 
                     (   0.00000   0.00000   ) 
                     (   0.00000   0.00000   ) 
                     (   0.00000   0.00000   ) 
                     (   0.00000   0.00000   ) 
                     (   0.00000   0.00000   ) 
                     (   0.00000   0.00000   ) 
                     (   0.00000   0.00000   ) 
                     (  -0.05893   0.00000   ) 
                     (   0.04594   0.00000   ) 
                     (   0.34557   0.00000   ) 
                     (   0.05893   0.00000   ) 
                     (   0.04594   0.00000   ) 
                     (   0.34557   0.00000   ) 
                     (  -0.05893   0.00000   ) 
                     (   0.04594   0.00000   ) 
                     (  -0.34557   0.00000   ) 
                     (   0.05893   0.00000   ) 
                     (   0.04594   0.00000   ) 
                     (  -0.34557   0.00000   ) 
                     (  -0.05893   0.00000   ) 
                     (   0.04594   0.00000   ) 
                     (   0.34557   0.00000   ) 
                     (   0.05893   0.00000   ) 
                     (   0.04594   0.00000   ) 
                     (   0.34557   0.00000   ) 
                     (  -0.05893   0.00000   ) 
                     (   0.04594   0.00000   ) 
                     (  -0.34557   0.00000   ) 
                     (   0.05893   0.00000   ) 
                     (   0.04594   0.00000   ) 
                     (  -0.34557   0.00000   ) 
                     (   0.00000   0.00000   ) 
                     (   0.00000   0.00000   ) 
                     (   0.00000   0.00000   ) 
                     (   0.00000   0.00000   ) 
                     (   0.00000   0.00000   ) 
                     (   0.00000   0.00000   ) 
                     (   0.00000   0.00000   ) 
                     (   0.00000   0.00000   ) 
                     (   0.00000   0.00000   ) 
                     (   0.00000   0.00000   ) 
                     (   0.00000   0.00000   ) 
                     (   0.00000   0.00000   ) 
  autoval = -.1746E+02
     Irreps are as follows:

                     mode #   4
                     (   0.00000   0.00000   ) 
                     (   0.00000   0.00000   ) 
                     (   0.00000   0.00000   ) 
                     (   0.00000   0.00000   ) 
                     (   0.00000   0.00000   ) 
                     (   0.00000   0.00000   ) 
                     (   0.00000   0.00000   ) 
                     (   0.00000   0.00000   ) 
                     (   0.00000   0.00000   ) 
                     (   0.00000   0.00000   ) 
                     (   0.00000   0.00000   ) 
                     (   0.00000   0.00000   ) 
                     (   0.00000   0.00000   ) 
                     (   0.00000   0.00000   ) 
                     (   0.00000   0.00000   ) 
                     (   0.00000   0.00000   ) 
                     (   0.00000   0.00000   ) 
                     (   0.00000   0.00000   ) 
                     (   0.00000   0.00000   ) 
                     (   0.00000   0.00000   ) 
                     (   0.00000   0.00000   ) 
                     (   0.00000   0.00000   ) 
                     (   0.00000   0.00000   ) 
                     (   0.00000   0.00000   ) 
                     (   0.00000   0.00000   ) 
                     (   0.00000   0.00000   ) 
                     (   0.00000   0.00000   ) 
                     (   0.00000   0.00000   ) 
                     (   0.00000   0.00000   ) 
                     (   0.00000   0.00000   ) 
                     (   0.00000   0.00000   ) 
                     (   0.00000   0.00000   ) 
                     (   0.00000   0.00000   ) 
                     (   0.00000   0.00000   ) 
                     (   0.00000   0.00000   ) 
                     (   0.00000   0.00000   ) 
                     (   0.00000   0.00000   ) 
                     (   0.00000   0.00000   ) 
                     (   0.00000   0.00000   ) 
                     (   0.00000   0.00000   ) 
                     (   0.00000   0.00000   ) 
                     (   0.00000   0.00000   ) 
                     (   0.00000   0.00000   ) 
                     (   0.00000   0.00000   ) 
                     (   0.00000   0.00000   ) 
                     (   0.00000   0.00000   ) 
                     (   0.00000   0.00000   ) 
                     (   0.00000   0.00000   ) 
                     (   0.00000   0.00000   ) 
                     (   0.00000   0.00000   ) 
                     (   0.00000   0.00000   ) 
                     (   0.00000   0.00000   ) 
                     (   0.00000   0.00000   ) 
                     (   0.00000   0.00000   ) 
                     (  -0.03044   0.00000   ) 
                     (   0.07441   0.00000   ) 
                     (  -0.34429   0.00000   ) 
                     (   0.03044   0.00000   ) 
                     (   0.07441   0.00000   ) 
                     (  -0.34429   0.00000   ) 
                     (  -0.03044   0.00000   ) 
                     (   0.07441   0.00000   ) 
                     (   0.34429   0.00000   ) 
                     (   0.03044   0.00000   ) 
                     (   0.07441   0.00000   ) 
                     (   0.34429   0.00000   ) 
                     (  -0.03044   0.00000   ) 
                     (   0.07441   0.00000   ) 
                     (  -0.34429   0.00000   ) 
                     (   0.03044   0.00000   ) 
                     (   0.07441   0.00000   ) 
                     (  -0.34429   0.00000   ) 
                     (  -0.03044   0.00000   ) 
                     (   0.07441   0.00000   ) 
                     (   0.34429   0.00000   ) 
                     (   0.03044   0.00000   ) 
                     (   0.07441   0.00000   ) 
                     (   0.34429   0.00000   ) 
                     (   0.00000   0.00000   ) 
                     (   0.00000   0.00000   ) 
                     (   0.00000   0.00000   ) 
                     (   0.00000   0.00000   ) 
                     (   0.00000   0.00000   ) 
                     (   0.00000   0.00000   ) 
                     (   0.00000   0.00000   ) 
                     (   0.00000   0.00000   ) 
                     (   0.00000   0.00000   ) 
                     (   0.00000   0.00000   ) 
                     (   0.00000   0.00000   ) 
                     (   0.00000   0.00000   ) 
                     (   0.00000   0.00000   ) 
                     (   0.00000   0.00000   ) 
                     (   0.00000   0.00000   ) 
                     (   0.00000   0.00000   ) 
                     (   0.00000   0.00000   ) 
                     (   0.00000   0.00000   ) 
                     (   0.00000   0.00000   ) 
                     (   0.00000   0.00000   ) 
                     (   0.00000   0.00000   ) 
                     (   0.00000   0.00000   ) 
                     (   0.00000   0.00000   ) 
                     (   0.00000   0.00000   ) 
                     (   0.00000   0.00000   ) 
                     (   0.00000   0.00000   ) 
                     (   0.00000   0.00000   ) 
                     (   0.00000   0.00000   ) 
                     (   0.00000   0.00000   ) 
                     (   0.00000   0.00000   ) 
                     (   0.00000   0.00000   ) 
                     (   0.00000   0.00000   ) 
                     (   0.00000   0.00000   ) 
                     (   0.00000   0.00000   ) 
                     (   0.00000   0.00000   ) 
                     (   0.00000   0.00000   ) 
                     (   0.00000   0.00000   ) 
                     (   0.00000   0.00000   ) 
                     (   0.00000   0.00000   ) 
                     (   0.00000   0.00000   ) 
                     (   0.00000   0.00000   ) 
                     (   0.00000   0.00000   ) 
                     (   0.00000   0.00000   ) 
                     (   0.00000   0.00000   ) 
                     (   0.00000   0.00000   ) 
                     (   0.00000   0.00000   ) 
                     (   0.00000   0.00000   ) 
                     (   0.00000   0.00000   ) 
                     (   0.00000   0.00000   ) 
                     (   0.00000   0.00000   ) 
                     (   0.00000   0.00000   ) 
                     (   0.00000   0.00000   ) 
                     (   0.00000   0.00000   ) 
                     (   0.00000   0.00000   ) 
                     (   0.00000   0.00000   ) 
                     (   0.00000   0.00000   ) 
                     (   0.00000   0.00000   ) 
                     (   0.00000   0.00000   ) 
                     (   0.00000   0.00000   ) 
                     (   0.00000   0.00000   ) 
                     (   0.00000   0.00000   ) 
                     (   0.00000   0.00000   ) 
                     (   0.00000   0.00000   ) 
                     (   0.00000   0.00000   ) 
                     (   0.00000   0.00000   ) 
                     (   0.00000   0.00000   ) 
                     (   0.00000   0.00000   ) 
                     (   0.00000   0.00000   ) 
                     (   0.00000   0.00000   ) 
                     (   0.00000   0.00000   ) 
                     (   0.00000   0.00000   ) 
                     (   0.00000   0.00000   ) 
  autoval = -.1495E+02
     Irreps are as follows:

                     mode #   5
                     (   0.00000   0.00000   ) 
                     (   0.00000   0.00000   ) 
                     (   0.00000   0.00000   ) 
                     (   0.00000   0.00000   ) 
                     (   0.00000   0.00000   ) 
                     (   0.00000   0.00000   ) 
                     (   0.00000   0.00000   ) 
                     (   0.00000   0.00000   ) 
                     (   0.00000   0.00000   ) 
                     (   0.00000   0.00000   ) 
                     (   0.00000   0.00000   ) 
                     (   0.00000   0.00000   ) 
                     (   0.00000   0.00000   ) 
                     (   0.00000   0.00000   ) 
                     (   0.00000   0.00000   ) 
                     (   0.00000   0.00000   ) 
                     (   0.00000   0.00000   ) 
                     (   0.00000   0.00000   ) 
                     (   0.00000   0.00000   ) 
                     (   0.00000   0.00000   ) 
                     (   0.00000   0.00000   ) 
                     (   0.00000   0.00000   ) 
                     (   0.00000   0.00000   ) 
                     (   0.00000   0.00000   ) 
                     (   0.00000   0.00000   ) 
                     (   0.00000   0.00000   ) 
                     (   0.00000   0.00000   ) 
                     (   0.00000   0.00000   ) 
                     (   0.00000   0.00000   ) 
                     (   0.00000   0.00000   ) 
                     (   0.00000   0.00000   ) 
                     (   0.00000   0.00000   ) 
                     (   0.00000   0.00000   ) 
                     (   0.00000   0.00000   ) 
                     (   0.00000   0.00000   ) 
                     (   0.00000   0.00000   ) 
                     (   0.00000   0.00000   ) 
                     (   0.00000   0.00000   ) 
                     (   0.00000   0.00000   ) 
                     (   0.00000   0.00000   ) 
                     (   0.00000   0.00000   ) 
                     (   0.00000   0.00000   ) 
                     (   0.00000   0.00000   ) 
                     (   0.00000   0.00000   ) 
                     (   0.00000   0.00000   ) 
                     (   0.00000   0.00000   ) 
                     (   0.00000   0.00000   ) 
                     (   0.00000   0.00000   ) 
                     (   0.00000   0.00000   ) 
                     (   0.00000   0.00000   ) 
                     (   0.00000   0.00000   ) 
                     (   0.00000   0.00000   ) 
                     (   0.00000   0.00000   ) 
                     (   0.00000   0.00000   ) 
                     (   0.00000   0.00000   ) 
                     (   0.00000   0.00000   ) 
                     (   0.00000   0.00000   ) 
                     (   0.00000   0.00000   ) 
                     (   0.00000   0.00000   ) 
                     (   0.00000   0.00000   ) 
                     (   0.00000   0.00000   ) 
                     (   0.00000   0.00000   ) 
                     (   0.00000   0.00000   ) 
                     (   0.00000   0.00000   ) 
                     (   0.00000   0.00000   ) 
                     (   0.00000   0.00000   ) 
                     (   0.00000   0.00000   ) 
                     (   0.00000   0.00000   ) 
                     (   0.00000   0.00000   ) 
                     (   0.00000   0.00000   ) 
                     (   0.00000   0.00000   ) 
                     (   0.00000   0.00000   ) 
                     (   0.00000   0.00000   ) 
                     (   0.00000   0.00000   ) 
                     (   0.00000   0.00000   ) 
                     (   0.00000   0.00000   ) 
                     (   0.00000   0.00000   ) 
                     (   0.00000   0.00000   ) 
                     (  -0.00000   0.00000   ) 
                     (  -0.00000   0.00000   ) 
                     (  -0.50000   0.00000   ) 
                     (  -0.00000   0.00000   ) 
                     (  -0.00000   0.00000   ) 
                     (  -0.50000   0.00000   ) 
                     (  -0.00000   0.00000   ) 
                     (  -0.00000   0.00000   ) 
                     (  -0.50000   0.00000   ) 
                     (  -0.00000   0.00000   ) 
                     (  -0.00000   0.00000   ) 
                     (  -0.50000   0.00000   ) 
                     (   0.00000   0.00000   ) 
                     (   0.00000   0.00000   ) 
                     (   0.00000   0.00000   ) 
                     (   0.00000   0.00000   ) 
                     (   0.00000   0.00000   ) 
                     (   0.00000   0.00000   ) 
                     (   0.00000   0.00000   ) 
                     (   0.00000   0.00000   ) 
                     (   0.00000   0.00000   ) 
                     (   0.00000   0.00000   ) 
                     (   0.00000   0.00000   ) 
                     (   0.00000   0.00000   ) 
                     (   0.00000   0.00000   ) 
                     (   0.00000   0.00000   ) 
                     (   0.00000   0.00000   ) 
                     (   0.00000   0.00000   ) 
                     (   0.00000   0.00000   ) 
                     (   0.00000   0.00000   ) 
                     (   0.00000   0.00000   ) 
                     (   0.00000   0.00000   ) 
                     (   0.00000   0.00000   ) 
                     (   0.00000   0.00000   ) 
                     (   0.00000   0.00000   ) 
                     (   0.00000   0.00000   ) 
                     (   0.00000   0.00000   ) 
                     (   0.00000   0.00000   ) 
                     (   0.00000   0.00000   ) 
                     (   0.00000   0.00000   ) 
                     (   0.00000   0.00000   ) 
                     (   0.00000   0.00000   ) 
                     (   0.00000   0.00000   ) 
                     (   0.00000   0.00000   ) 
                     (   0.00000   0.00000   ) 
                     (   0.00000   0.00000   ) 
                     (   0.00000   0.00000   ) 
                     (   0.00000   0.00000   ) 
                     (   0.00000   0.00000   ) 
                     (   0.00000   0.00000   ) 
                     (   0.00000   0.00000   ) 
                     (   0.00000   0.00000   ) 
                     (   0.00000   0.00000   ) 
                     (   0.00000   0.00000   ) 
                     (   0.00000   0.00000   ) 
                     (   0.00000   0.00000   ) 
                     (   0.00000   0.00000   ) 
                     (   0.00000   0.00000   ) 
                     (   0.00000   0.00000   ) 
                     (   0.00000   0.00000   ) 
                     (   0.00000   0.00000   ) 
                     (   0.00000   0.00000   ) 
                     (   0.00000   0.00000   ) 
                     (   0.00000   0.00000   ) 
                     (   0.00000   0.00000   ) 
                     (   0.00000   0.00000   ) 
                     (   0.00000   0.00000   ) 
                     (   0.00000   0.00000   ) 
                     (   0.00000   0.00000   ) 
                     (   0.00000   0.00000   ) 
                     (   0.00000   0.00000   ) 
                     (   0.00000   0.00000   ) 
  autoval = -.1309E+02
     Irreps are as follows:

                     mode #   6
                     (   0.00000   0.00000   ) 
                     (   0.00000   0.00000   ) 
                     (   0.00000   0.00000   ) 
                     (   0.00000   0.00000   ) 
                     (   0.00000   0.00000   ) 
                     (   0.00000   0.00000   ) 
                     (   0.00000   0.00000   ) 
                     (   0.00000   0.00000   ) 
                     (   0.00000   0.00000   ) 
                     (   0.00000   0.00000   ) 
                     (   0.00000   0.00000   ) 
                     (   0.00000   0.00000   ) 
                     (   0.00000   0.00000   ) 
                     (   0.00000   0.00000   ) 
                     (   0.00000   0.00000   ) 
                     (   0.00000   0.00000   ) 
                     (   0.00000   0.00000   ) 
                     (   0.00000   0.00000   ) 
                     (   0.00000   0.00000   ) 
                     (   0.00000   0.00000   ) 
                     (   0.00000   0.00000   ) 
                     (   0.00000   0.00000   ) 
                     (   0.00000   0.00000   ) 
                     (   0.00000   0.00000   ) 
                     (   0.00000   0.00000   ) 
                     (   0.00000   0.00000   ) 
                     (   0.00000   0.00000   ) 
                     (   0.00000   0.00000   ) 
                     (   0.00000   0.00000   ) 
                     (   0.00000   0.00000   ) 
                     (   0.00000   0.00000   ) 
                     (   0.00000   0.00000   ) 
                     (   0.00000   0.00000   ) 
                     (   0.00000   0.00000   ) 
                     (   0.00000   0.00000   ) 
                     (   0.00000   0.00000   ) 
                     (   0.00000   0.00000   ) 
                     (   0.00000   0.00000   ) 
                     (   0.00000   0.00000   ) 
                     (   0.00000   0.00000   ) 
                     (   0.00000   0.00000   ) 
                     (   0.00000   0.00000   ) 
                     (   0.00000   0.00000   ) 
                     (   0.00000   0.00000   ) 
                     (   0.00000   0.00000   ) 
                     (   0.00000   0.00000   ) 
                     (   0.00000   0.00000   ) 
                     (   0.00000   0.00000   ) 
                     (   0.00000   0.00000   ) 
                     (   0.00000   0.00000   ) 
                     (   0.00000   0.00000   ) 
                     (   0.00000   0.00000   ) 
                     (   0.00000   0.00000   ) 
                     (   0.00000   0.00000   ) 
                     (   0.00000   0.00000   ) 
                     (   0.00000   0.00000   ) 
                     (   0.00000   0.00000   ) 
                     (   0.00000   0.00000   ) 
                     (   0.00000   0.00000   ) 
                     (   0.00000   0.00000   ) 
                     (   0.00000   0.00000   ) 
                     (   0.00000   0.00000   ) 
                     (   0.00000   0.00000   ) 
                     (   0.00000   0.00000   ) 
                     (   0.00000   0.00000   ) 
                     (   0.00000   0.00000   ) 
                     (   0.00000   0.00000   ) 
                     (   0.00000   0.00000   ) 
                     (   0.00000   0.00000   ) 
                     (   0.00000   0.00000   ) 
                     (   0.00000   0.00000   ) 
                     (   0.00000   0.00000   ) 
                     (   0.00000   0.00000   ) 
                     (   0.00000   0.00000   ) 
                     (   0.00000   0.00000   ) 
                     (   0.00000   0.00000   ) 
                     (   0.00000   0.00000   ) 
                     (   0.00000   0.00000   ) 
                     (   0.00000   0.00000   ) 
                     (   0.00000   0.00000   ) 
                     (   0.00000   0.00000   ) 
                     (   0.00000   0.00000   ) 
                     (   0.00000   0.00000   ) 
                     (   0.00000   0.00000   ) 
                     (   0.00000   0.00000   ) 
                     (   0.00000   0.00000   ) 
                     (   0.00000   0.00000   ) 
                     (   0.00000   0.00000   ) 
                     (   0.00000   0.00000   ) 
                     (   0.00000   0.00000   ) 
                     (   0.00000   0.00000   ) 
                     (   0.00000   0.00000   ) 
                     (   0.00000   0.00000   ) 
                     (   0.00000   0.00000   ) 
                     (   0.00000   0.00000   ) 
                     (   0.00000   0.00000   ) 
                     (   0.00000   0.00000   ) 
                     (   0.00000   0.00000   ) 
                     (   0.00000   0.00000   ) 
                     (   0.00000   0.00000   ) 
                     (   0.00000   0.00000   ) 
                     (   0.00000   0.00000   ) 
                     (   0.00000   0.00000   ) 
                     (   0.00000   0.00000   ) 
                     (   0.00000   0.00000   ) 
                     (   0.00000   0.00000   ) 
                     (   0.00000   0.00000   ) 
                     (   0.00000   0.00000   ) 
                     (   0.00000   0.00000   ) 
                     (   0.00000   0.00000   ) 
                     (   0.00000   0.00000   ) 
                     (   0.00000   0.00000   ) 
                     (   0.00000   0.00000   ) 
                     (   0.00000   0.00000   ) 
                     (  -0.05240   0.00000   ) 
                     (  -0.09589   0.00000   ) 
                     (   0.33624   0.00000   ) 
                     (   0.05240   0.00000   ) 
                     (  -0.09589   0.00000   ) 
                     (   0.33624   0.00000   ) 
                     (   0.05240   0.00000   ) 
                     (   0.09589   0.00000   ) 
                     (   0.33624   0.00000   ) 
                     (  -0.05240   0.00000   ) 
                     (   0.09589   0.00000   ) 
                     (   0.33624   0.00000   ) 
                     (  -0.05240   0.00000   ) 
                     (  -0.09589   0.00000   ) 
                     (   0.33624   0.00000   ) 
                     (   0.05240   0.00000   ) 
                     (  -0.09589   0.00000   ) 
                     (   0.33624   0.00000   ) 
                     (   0.05240   0.00000   ) 
                     (   0.09589   0.00000   ) 
                     (   0.33624   0.00000   ) 
                     (  -0.05240   0.00000   ) 
                     (   0.09589   0.00000   ) 
                     (   0.33624   0.00000   ) 
                     (   0.00000   0.00000   ) 
                     (   0.00000   0.00000   ) 
                     (   0.00000   0.00000   ) 
                     (   0.00000   0.00000   ) 
                     (   0.00000   0.00000   ) 
                     (   0.00000   0.00000   ) 
                     (   0.00000   0.00000   ) 
                     (   0.00000   0.00000   ) 
                     (   0.00000   0.00000   ) 
                     (   0.00000   0.00000   ) 
                     (   0.00000   0.00000   ) 
                     (   0.00000   0.00000   ) 
  autoval = -.1129E+02
     Irreps are as follows:

                     mode #   7
                     (   0.00000   0.00000   ) 
                     (   0.00000   0.00000   ) 
                     (   0.00000   0.00000   ) 
                     (   0.00000   0.00000   ) 
                     (   0.00000   0.00000   ) 
                     (   0.00000   0.00000   ) 
                     (   0.00000   0.00000   ) 
                     (   0.00000   0.00000   ) 
                     (   0.00000   0.00000   ) 
                     (   0.00000   0.00000   ) 
                     (   0.00000   0.00000   ) 
                     (   0.00000   0.00000   ) 
                     (   0.00000   0.00000   ) 
                     (   0.00000   0.00000   ) 
                     (   0.00000   0.00000   ) 
                     (   0.00000   0.00000   ) 
                     (   0.00000   0.00000   ) 
                     (   0.00000   0.00000   ) 
                     (   0.00000   0.00000   ) 
                     (   0.00000   0.00000   ) 
                     (   0.00000   0.00000   ) 
                     (   0.00000   0.00000   ) 
                     (   0.00000   0.00000   ) 
                     (   0.00000   0.00000   ) 
                     (   0.00000   0.00000   ) 
                     (   0.00000   0.00000   ) 
                     (   0.00000   0.00000   ) 
                     (   0.00000   0.00000   ) 
                     (   0.00000   0.00000   ) 
                     (   0.00000   0.00000   ) 
                     (   0.00000   0.00000   ) 
                     (   0.00000   0.00000   ) 
                     (   0.00000   0.00000   ) 
                     (   0.00000   0.00000   ) 
                     (   0.00000   0.00000   ) 
                     (   0.00000   0.00000   ) 
                     (   0.00000   0.00000   ) 
                     (   0.00000   0.00000   ) 
                     (   0.00000   0.00000   ) 
                     (   0.00000   0.00000   ) 
                     (   0.00000   0.00000   ) 
                     (   0.00000   0.00000   ) 
                     (  -0.00000   0.00000   ) 
                     (   0.00000   0.00000   ) 
                     (  -0.50000   0.00000   ) 
                     (  -0.00000   0.00000   ) 
                     (   0.00000   0.00000   ) 
                     (  -0.50000   0.00000   ) 
                     (   0.00000   0.00000   ) 
                     (  -0.00000   0.00000   ) 
                     (   0.50000   0.00000   ) 
                     (   0.00000   0.00000   ) 
                     (  -0.00000   0.00000   ) 
                     (   0.50000   0.00000   ) 
                     (   0.00000   0.00000   ) 
                     (   0.00000   0.00000   ) 
                     (   0.00000   0.00000   ) 
                     (   0.00000   0.00000   ) 
                     (   0.00000   0.00000   ) 
                     (   0.00000   0.00000   ) 
                     (   0.00000   0.00000   ) 
                     (   0.00000   0.00000   ) 
                     (   0.00000   0.00000   ) 
                     (   0.00000   0.00000   ) 
                     (   0.00000   0.00000   ) 
                     (   0.00000   0.00000   ) 
                     (   0.00000   0.00000   ) 
                     (   0.00000   0.00000   ) 
                     (   0.00000   0.00000   ) 
                     (   0.00000   0.00000   ) 
                     (   0.00000   0.00000   ) 
                     (   0.00000   0.00000   ) 
                     (   0.00000   0.00000   ) 
                     (   0.00000   0.00000   ) 
                     (   0.00000   0.00000   ) 
                     (   0.00000   0.00000   ) 
                     (   0.00000   0.00000   ) 
                     (   0.00000   0.00000   ) 
                     (   0.00000   0.00000   ) 
                     (   0.00000   0.00000   ) 
                     (   0.00000   0.00000   ) 
                     (   0.00000   0.00000   ) 
                     (   0.00000   0.00000   ) 
                     (   0.00000   0.00000   ) 
                     (   0.00000   0.00000   ) 
                     (   0.00000   0.00000   ) 
                     (   0.00000   0.00000   ) 
                     (   0.00000   0.00000   ) 
                     (   0.00000   0.00000   ) 
                     (   0.00000   0.00000   ) 
                     (   0.00000   0.00000   ) 
                     (   0.00000   0.00000   ) 
                     (   0.00000   0.00000   ) 
                     (   0.00000   0.00000   ) 
                     (   0.00000   0.00000   ) 
                     (   0.00000   0.00000   ) 
                     (   0.00000   0.00000   ) 
                     (   0.00000   0.00000   ) 
                     (   0.00000   0.00000   ) 
                     (   0.00000   0.00000   ) 
                     (   0.00000   0.00000   ) 
                     (   0.00000   0.00000   ) 
                     (   0.00000   0.00000   ) 
                     (   0.00000   0.00000   ) 
                     (   0.00000   0.00000   ) 
                     (   0.00000   0.00000   ) 
                     (   0.00000   0.00000   ) 
                     (   0.00000   0.00000   ) 
                     (   0.00000   0.00000   ) 
                     (   0.00000   0.00000   ) 
                     (   0.00000   0.00000   ) 
                     (   0.00000   0.00000   ) 
                     (   0.00000   0.00000   ) 
                     (   0.00000   0.00000   ) 
                     (   0.00000   0.00000   ) 
                     (   0.00000   0.00000   ) 
                     (   0.00000   0.00000   ) 
                     (   0.00000   0.00000   ) 
                     (   0.00000   0.00000   ) 
                     (   0.00000   0.00000   ) 
                     (   0.00000   0.00000   ) 
                     (   0.00000   0.00000   ) 
                     (   0.00000   0.00000   ) 
                     (   0.00000   0.00000   ) 
                     (   0.00000   0.00000   ) 
                     (   0.00000   0.00000   ) 
                     (   0.00000   0.00000   ) 
                     (   0.00000   0.00000   ) 
                     (   0.00000   0.00000   ) 
                     (   0.00000   0.00000   ) 
                     (   0.00000   0.00000   ) 
                     (   0.00000   0.00000   ) 
                     (   0.00000   0.00000   ) 
                     (   0.00000   0.00000   ) 
                     (   0.00000   0.00000   ) 
                     (   0.00000   0.00000   ) 
                     (   0.00000   0.00000   ) 
                     (   0.00000   0.00000   ) 
                     (   0.00000   0.00000   ) 
                     (   0.00000   0.00000   ) 
                     (   0.00000   0.00000   ) 
                     (   0.00000   0.00000   ) 
                     (   0.00000   0.00000   ) 
                     (   0.00000   0.00000   ) 
                     (   0.00000   0.00000   ) 
                     (   0.00000   0.00000   ) 
                     (   0.00000   0.00000   ) 
                     (   0.00000   0.00000   ) 
                     (   0.00000   0.00000   ) 
                     (   0.00000   0.00000   ) 
  autoval = -.1111E+02
     Irreps are as follows:

                     mode #   8
                     (   0.00000   0.00000   ) 
                     (   0.00000   0.00000   ) 
                     (   0.00000   0.00000   ) 
                     (   0.00000   0.00000   ) 
                     (   0.00000   0.00000   ) 
                     (   0.00000   0.00000   ) 
                     (   0.00000   0.00000   ) 
                     (   0.00000   0.00000   ) 
                     (   0.00000   0.00000   ) 
                     (   0.00000   0.00000   ) 
                     (   0.00000   0.00000   ) 
                     (   0.00000   0.00000   ) 
                     (   0.00000   0.00000   ) 
                     (   0.00000   0.00000   ) 
                     (   0.00000   0.00000   ) 
                     (   0.00000   0.00000   ) 
                     (   0.00000   0.00000   ) 
                     (   0.00000   0.00000   ) 
                     (   0.00000   0.00000   ) 
                     (   0.00000   0.00000   ) 
                     (   0.00000   0.00000   ) 
                     (   0.00000   0.00000   ) 
                     (   0.00000   0.00000   ) 
                     (   0.00000   0.00000   ) 
                     (   0.00000   0.00000   ) 
                     (   0.00000   0.00000   ) 
                     (   0.00000   0.00000   ) 
                     (   0.00000   0.00000   ) 
                     (   0.00000   0.00000   ) 
                     (   0.00000   0.00000   ) 
                     (   0.00000   0.00000   ) 
                     (   0.00000   0.00000   ) 
                     (   0.00000   0.00000   ) 
                     (   0.00000   0.00000   ) 
                     (   0.00000   0.00000   ) 
                     (   0.00000   0.00000   ) 
                     (   0.00000   0.00000   ) 
                     (   0.00000   0.00000   ) 
                     (   0.00000   0.00000   ) 
                     (   0.00000   0.00000   ) 
                     (   0.00000   0.00000   ) 
                     (   0.00000   0.00000   ) 
                     (   0.00000   0.00000   ) 
                     (   0.00000   0.00000   ) 
                     (   0.00000   0.00000   ) 
                     (   0.00000   0.00000   ) 
                     (   0.00000   0.00000   ) 
                     (   0.00000   0.00000   ) 
                     (   0.00000   0.00000   ) 
                     (   0.00000   0.00000   ) 
                     (   0.00000   0.00000   ) 
                     (   0.00000   0.00000   ) 
                     (   0.00000   0.00000   ) 
                     (   0.00000   0.00000   ) 
                     (   0.00000   0.00000   ) 
                     (   0.00000   0.00000   ) 
                     (   0.00000   0.00000   ) 
                     (   0.00000   0.00000   ) 
                     (   0.00000   0.00000   ) 
                     (   0.00000   0.00000   ) 
                     (   0.00000   0.00000   ) 
                     (   0.00000   0.00000   ) 
                     (   0.00000   0.00000   ) 
                     (   0.00000   0.00000   ) 
                     (   0.00000   0.00000   ) 
                     (   0.00000   0.00000   ) 
                     (   0.00000   0.00000   ) 
                     (   0.00000   0.00000   ) 
                     (   0.00000   0.00000   ) 
                     (   0.00000   0.00000   ) 
                     (   0.00000   0.00000   ) 
                     (   0.00000   0.00000   ) 
                     (   0.00000   0.00000   ) 
                     (   0.00000   0.00000   ) 
                     (   0.00000   0.00000   ) 
                     (   0.00000   0.00000   ) 
                     (   0.00000   0.00000   ) 
                     (   0.00000   0.00000   ) 
                     (   0.00000   0.00000   ) 
                     (   0.00000   0.00000   ) 
                     (   0.00000   0.00000   ) 
                     (   0.00000   0.00000   ) 
                     (   0.00000   0.00000   ) 
                     (   0.00000   0.00000   ) 
                     (   0.00000   0.00000   ) 
                     (   0.00000   0.00000   ) 
                     (   0.00000   0.00000   ) 
                     (   0.00000   0.00000   ) 
                     (   0.00000   0.00000   ) 
                     (   0.00000   0.00000   ) 
                     (  -0.09531   0.00000   ) 
                     (   0.08775   0.00000   ) 
                     (   0.32896   0.00000   ) 
                     (  -0.09531   0.00000   ) 
                     (  -0.08775   0.00000   ) 
                     (  -0.32896   0.00000   ) 
                     (  -0.09531   0.00000   ) 
                     (   0.08775   0.00000   ) 
                     (  -0.32896   0.00000   ) 
                     (  -0.09531   0.00000   ) 
                     (  -0.08775   0.00000   ) 
                     (   0.32896   0.00000   ) 
                     (   0.09531   0.00000   ) 
                     (  -0.08775   0.00000   ) 
                     (  -0.32896   0.00000   ) 
                     (   0.09531   0.00000   ) 
                     (   0.08775   0.00000   ) 
                     (   0.32896   0.00000   ) 
                     (   0.09531   0.00000   ) 
                     (  -0.08775   0.00000   ) 
                     (   0.32896   0.00000   ) 
                     (   0.09531   0.00000   ) 
                     (   0.08775   0.00000   ) 
                     (  -0.32896   0.00000   ) 
                     (   0.00000   0.00000   ) 
                     (   0.00000   0.00000   ) 
                     (   0.00000   0.00000   ) 
                     (   0.00000   0.00000   ) 
                     (   0.00000   0.00000   ) 
                     (   0.00000   0.00000   ) 
                     (   0.00000   0.00000   ) 
                     (   0.00000   0.00000   ) 
                     (   0.00000   0.00000   ) 
                     (   0.00000   0.00000   ) 
                     (   0.00000   0.00000   ) 
                     (   0.00000   0.00000   ) 
                     (   0.00000   0.00000   ) 
                     (   0.00000   0.00000   ) 
                     (   0.00000   0.00000   ) 
                     (   0.00000   0.00000   ) 
                     (   0.00000   0.00000   ) 
                     (   0.00000   0.00000   ) 
                     (   0.00000   0.00000   ) 
                     (   0.00000   0.00000   ) 
                     (   0.00000   0.00000   ) 
                     (   0.00000   0.00000   ) 
                     (   0.00000   0.00000   ) 
                     (   0.00000   0.00000   ) 
                     (   0.00000   0.00000   ) 
                     (   0.00000   0.00000   ) 
                     (   0.00000   0.00000   ) 
                     (   0.00000   0.00000   ) 
                     (   0.00000   0.00000   ) 
                     (   0.00000   0.00000   ) 
                     (   0.00000   0.00000   ) 
                     (   0.00000   0.00000   ) 
                     (   0.00000   0.00000   ) 
                     (   0.00000   0.00000   ) 
                     (   0.00000   0.00000   ) 
                     (   0.00000   0.00000   ) 
  autoval = -.1012E+02
     Irreps are as follows:

                     mode #   9
                     (   0.00000   0.00000   ) 
                     (   0.00000   0.00000   ) 
                     (   0.00000   0.00000   ) 
                     (   0.00000   0.00000   ) 
                     (   0.00000   0.00000   ) 
                     (   0.00000   0.00000   ) 
                     (   0.00000   0.00000   ) 
                     (   0.00000   0.00000   ) 
                     (   0.00000   0.00000   ) 
                     (   0.00000   0.00000   ) 
                     (   0.00000   0.00000   ) 
                     (   0.00000   0.00000   ) 
                     (   0.00000   0.00000   ) 
                     (   0.00000   0.00000   ) 
                     (   0.00000   0.00000   ) 
                     (   0.00000   0.00000   ) 
                     (   0.00000   0.00000   ) 
                     (   0.00000   0.00000   ) 
                     (   0.00000   0.00000   ) 
                     (   0.00000   0.00000   ) 
                     (   0.00000   0.00000   ) 
                     (   0.00000   0.00000   ) 
                     (   0.00000   0.00000   ) 
                     (   0.00000   0.00000   ) 
                     (   0.00000   0.00000   ) 
                     (   0.00000   0.00000   ) 
                     (   0.00000   0.00000   ) 
                     (   0.00000   0.00000   ) 
                     (   0.00000   0.00000   ) 
                     (   0.00000   0.00000   ) 
                     (   0.00000   0.00000   ) 
                     (   0.00000   0.00000   ) 
                     (   0.00000   0.00000   ) 
                     (   0.00000   0.00000   ) 
                     (   0.00000   0.00000   ) 
                     (   0.00000   0.00000   ) 
                     (   0.00000   0.00000   ) 
                     (   0.00000   0.00000   ) 
                     (   0.00000   0.00000   ) 
                     (   0.00000   0.00000   ) 
                     (   0.00000   0.00000   ) 
                     (   0.00000   0.00000   ) 
                     (   0.00000   0.00000   ) 
                     (   0.00000   0.00000   ) 
                     (   0.00000   0.00000   ) 
                     (   0.00000   0.00000   ) 
                     (   0.00000   0.00000   ) 
                     (   0.00000   0.00000   ) 
                     (   0.00000   0.00000   ) 
                     (   0.00000   0.00000   ) 
                     (   0.00000   0.00000   ) 
                     (   0.00000   0.00000   ) 
                     (   0.00000   0.00000   ) 
                     (   0.00000   0.00000   ) 
                     (   0.00000   0.00000   ) 
                     (   0.00000   0.00000   ) 
                     (   0.00000   0.00000   ) 
                     (   0.00000   0.00000   ) 
                     (   0.00000   0.00000   ) 
                     (   0.00000   0.00000   ) 
                     (   0.00000   0.00000   ) 
                     (   0.00000   0.00000   ) 
                     (   0.00000   0.00000   ) 
                     (   0.00000   0.00000   ) 
                     (   0.00000   0.00000   ) 
                     (   0.00000   0.00000   ) 
                     (   0.00000   0.00000   ) 
                     (   0.00000   0.00000   ) 
                     (   0.00000   0.00000   ) 
                     (   0.00000   0.00000   ) 
                     (   0.00000   0.00000   ) 
                     (   0.00000   0.00000   ) 
                     (   0.00000   0.00000   ) 
                     (   0.00000   0.00000   ) 
                     (   0.00000   0.00000   ) 
                     (   0.00000   0.00000   ) 
                     (   0.00000   0.00000   ) 
                     (   0.00000   0.00000   ) 
                     (   0.00000   0.00000   ) 
                     (   0.00000   0.00000   ) 
                     (   0.00000   0.00000   ) 
                     (   0.00000   0.00000   ) 
                     (   0.00000   0.00000   ) 
                     (   0.00000   0.00000   ) 
                     (   0.00000   0.00000   ) 
                     (   0.00000   0.00000   ) 
                     (   0.00000   0.00000   ) 
                     (   0.00000   0.00000   ) 
                     (   0.00000   0.00000   ) 
                     (   0.00000   0.00000   ) 
                     (   0.00000   0.00000   ) 
                     (   0.00000   0.00000   ) 
                     (   0.00000   0.00000   ) 
                     (   0.00000   0.00000   ) 
                     (   0.00000   0.00000   ) 
                     (   0.00000   0.00000   ) 
                     (   0.00000   0.00000   ) 
                     (   0.00000   0.00000   ) 
                     (   0.00000   0.00000   ) 
                     (   0.00000   0.00000   ) 
                     (   0.00000   0.00000   ) 
                     (   0.00000   0.00000   ) 
                     (   0.00000   0.00000   ) 
                     (   0.00000   0.00000   ) 
                     (   0.00000   0.00000   ) 
                     (   0.00000   0.00000   ) 
                     (   0.00000   0.00000   ) 
                     (   0.00000   0.00000   ) 
                     (   0.00000   0.00000   ) 
                     (   0.00000   0.00000   ) 
                     (   0.00000   0.00000   ) 
                     (   0.00000   0.00000   ) 
                     (   0.00000   0.00000   ) 
                     (   0.00000   0.00000   ) 
                     (  -0.13237   0.00000   ) 
                     (  -0.02337   0.00000   ) 
                     (   0.32700   0.00000   ) 
                     (  -0.13237   0.00000   ) 
                     (   0.02337   0.00000   ) 
                     (  -0.32700   0.00000   ) 
                     (   0.13237   0.00000   ) 
                     (   0.02337   0.00000   ) 
                     (   0.32700   0.00000   ) 
                     (   0.13237   0.00000   ) 
                     (  -0.02337   0.00000   ) 
                     (  -0.32700   0.00000   ) 
                     (   0.13237   0.00000   ) 
                     (   0.02337   0.00000   ) 
                     (  -0.32700   0.00000   ) 
                     (   0.13237   0.00000   ) 
                     (  -0.02337   0.00000   ) 
                     (   0.32700   0.00000   ) 
                     (  -0.13237   0.00000   ) 
                     (  -0.02337   0.00000   ) 
                     (  -0.32700   0.00000   ) 
                     (  -0.13237   0.00000   ) 
                     (   0.02337   0.00000   ) 
                     (   0.32700   0.00000   ) 
                     (   0.00000   0.00000   ) 
                     (   0.00000   0.00000   ) 
                     (   0.00000   0.00000   ) 
                     (   0.00000   0.00000   ) 
                     (   0.00000   0.00000   ) 
                     (   0.00000   0.00000   ) 
                     (   0.00000   0.00000   ) 
                     (   0.00000   0.00000   ) 
                     (   0.00000   0.00000   ) 
                     (   0.00000   0.00000   ) 
                     (   0.00000   0.00000   ) 
                     (   0.00000   0.00000   ) 
  autoval = -.9282E+01
     Irreps are as follows:

                     mode #  10
                     (   0.00000   0.00000   ) 
                     (   0.00000   0.00000   ) 
                     (   0.00000   0.00000   ) 
                     (   0.00000   0.00000   ) 
                     (   0.00000   0.00000   ) 
                     (   0.00000   0.00000   ) 
                     (   0.00000   0.00000   ) 
                     (   0.00000   0.00000   ) 
                     (   0.00000   0.00000   ) 
                     (   0.00000   0.00000   ) 
                     (   0.00000   0.00000   ) 
                     (   0.00000   0.00000   ) 
                     (   0.00000   0.00000   ) 
                     (   0.00000   0.00000   ) 
                     (   0.00000   0.00000   ) 
                     (   0.00000   0.00000   ) 
                     (   0.00000   0.00000   ) 
                     (   0.00000   0.00000   ) 
                     (   0.00000   0.00000   ) 
                     (   0.00000   0.00000   ) 
                     (   0.00000   0.00000   ) 
                     (   0.00000   0.00000   ) 
                     (   0.00000   0.00000   ) 
                     (   0.00000   0.00000   ) 
                     (   0.00000   0.00000   ) 
                     (   0.00000   0.00000   ) 
                     (   0.00000   0.00000   ) 
                     (   0.00000   0.00000   ) 
                     (   0.00000   0.00000   ) 
                     (   0.00000   0.00000   ) 
                     (  -0.00000   0.00000   ) 
                     (  -0.00000   0.00000   ) 
                     (  -0.50000   0.00000   ) 
                     (   0.00000   0.00000   ) 
                     (   0.00000   0.00000   ) 
                     (   0.50000   0.00000   ) 
                     (  -0.00000   0.00000   ) 
                     (  -0.00000   0.00000   ) 
                     (  -0.50000   0.00000   ) 
                     (   0.00000   0.00000   ) 
                     (   0.00000   0.00000   ) 
                     (   0.50000   0.00000   ) 
                     (   0.00000   0.00000   ) 
                     (   0.00000   0.00000   ) 
                     (   0.00000   0.00000   ) 
                     (   0.00000   0.00000   ) 
                     (   0.00000   0.00000   ) 
                     (   0.00000   0.00000   ) 
                     (   0.00000   0.00000   ) 
                     (   0.00000   0.00000   ) 
                     (   0.00000   0.00000   ) 
                     (   0.00000   0.00000   ) 
                     (   0.00000   0.00000   ) 
                     (   0.00000   0.00000   ) 
                     (   0.00000   0.00000   ) 
                     (   0.00000   0.00000   ) 
                     (   0.00000   0.00000   ) 
                     (   0.00000   0.00000   ) 
                     (   0.00000   0.00000   ) 
                     (   0.00000   0.00000   ) 
                     (   0.00000   0.00000   ) 
                     (   0.00000   0.00000   ) 
                     (   0.00000   0.00000   ) 
                     (   0.00000   0.00000   ) 
                     (   0.00000   0.00000   ) 
                     (   0.00000   0.00000   ) 
                     (   0.00000   0.00000   ) 
                     (   0.00000   0.00000   ) 
                     (   0.00000   0.00000   ) 
                     (   0.00000   0.00000   ) 
                     (   0.00000   0.00000   ) 
                     (   0.00000   0.00000   ) 
                     (   0.00000   0.00000   ) 
                     (   0.00000   0.00000   ) 
                     (   0.00000   0.00000   ) 
                     (   0.00000   0.00000   ) 
                     (   0.00000   0.00000   ) 
                     (   0.00000   0.00000   ) 
                     (   0.00000   0.00000   ) 
                     (   0.00000   0.00000   ) 
                     (   0.00000   0.00000   ) 
                     (   0.00000   0.00000   ) 
                     (   0.00000   0.00000   ) 
                     (   0.00000   0.00000   ) 
                     (   0.00000   0.00000   ) 
                     (   0.00000   0.00000   ) 
                     (   0.00000   0.00000   ) 
                     (   0.00000   0.00000   ) 
                     (   0.00000   0.00000   ) 
                     (   0.00000   0.00000   ) 
                     (   0.00000   0.00000   ) 
                     (   0.00000   0.00000   ) 
                     (   0.00000   0.00000   ) 
                     (   0.00000   0.00000   ) 
                     (   0.00000   0.00000   ) 
                     (   0.00000   0.00000   ) 
                     (   0.00000   0.00000   ) 
                     (   0.00000   0.00000   ) 
                     (   0.00000   0.00000   ) 
                     (   0.00000   0.00000   ) 
                     (   0.00000   0.00000   ) 
                     (   0.00000   0.00000   ) 
                     (   0.00000   0.00000   ) 
                     (   0.00000   0.00000   ) 
                     (   0.00000   0.00000   ) 
                     (   0.00000   0.00000   ) 
                     (   0.00000   0.00000   ) 
                     (   0.00000   0.00000   ) 
                     (   0.00000   0.00000   ) 
                     (   0.00000   0.00000   ) 
                     (   0.00000   0.00000   ) 
                     (   0.00000   0.00000   ) 
                     (   0.00000   0.00000   ) 
                     (   0.00000   0.00000   ) 
                     (   0.00000   0.00000   ) 
                     (   0.00000   0.00000   ) 
                     (   0.00000   0.00000   ) 
                     (   0.00000   0.00000   ) 
                     (   0.00000   0.00000   ) 
                     (   0.00000   0.00000   ) 
                     (   0.00000   0.00000   ) 
                     (   0.00000   0.00000   ) 
                     (   0.00000   0.00000   ) 
                     (   0.00000   0.00000   ) 
                     (   0.00000   0.00000   ) 
                     (   0.00000   0.00000   ) 
                     (   0.00000   0.00000   ) 
                     (   0.00000   0.00000   ) 
                     (   0.00000   0.00000   ) 
                     (   0.00000   0.00000   ) 
                     (   0.00000   0.00000   ) 
                     (   0.00000   0.00000   ) 
                     (   0.00000   0.00000   ) 
                     (   0.00000   0.00000   ) 
                     (   0.00000   0.00000   ) 
                     (   0.00000   0.00000   ) 
                     (   0.00000   0.00000   ) 
                     (   0.00000   0.00000   ) 
                     (   0.00000   0.00000   ) 
                     (   0.00000   0.00000   ) 
                     (   0.00000   0.00000   ) 
                     (   0.00000   0.00000   ) 
                     (   0.00000   0.00000   ) 
                     (   0.00000   0.00000   ) 
                     (   0.00000   0.00000   ) 
                     (   0.00000   0.00000   ) 
                     (   0.00000   0.00000   ) 
                     (   0.00000   0.00000   ) 
                     (   0.00000   0.00000   ) 
                     (   0.00000   0.00000   ) 
  autoval = -.8917E+01
     Irreps are as follows:

                     mode #  11
                     (   0.00000   0.00000   ) 
                     (   0.00000   0.00000   ) 
                     (   0.00000   0.00000   ) 
                     (   0.00000   0.00000   ) 
                     (   0.00000   0.00000   ) 
                     (   0.00000   0.00000   ) 
                     (  -0.00000   0.00000   ) 
                     (  -0.00000   0.00000   ) 
                     (  -0.50000   0.00000   ) 
                     (   0.00000   0.00000   ) 
                     (  -0.00000   0.00000   ) 
                     (   0.50000   0.00000   ) 
                     (  -0.00000   0.00000   ) 
                     (  -0.00000   0.00000   ) 
                     (  -0.50000   0.00000   ) 
                     (   0.00000   0.00000   ) 
                     (  -0.00000   0.00000   ) 
                     (   0.50000   0.00000   ) 
                     (   0.00000   0.00000   ) 
                     (   0.00000   0.00000   ) 
                     (   0.00000   0.00000   ) 
                     (   0.00000   0.00000   ) 
                     (   0.00000   0.00000   ) 
                     (   0.00000   0.00000   ) 
                     (   0.00000   0.00000   ) 
                     (   0.00000   0.00000   ) 
                     (   0.00000   0.00000   ) 
                     (   0.00000   0.00000   ) 
                     (   0.00000   0.00000   ) 
                     (   0.00000   0.00000   ) 
                     (   0.00000   0.00000   ) 
                     (   0.00000   0.00000   ) 
                     (   0.00000   0.00000   ) 
                     (   0.00000   0.00000   ) 
                     (   0.00000   0.00000   ) 
                     (   0.00000   0.00000   ) 
                     (   0.00000   0.00000   ) 
                     (   0.00000   0.00000   ) 
                     (   0.00000   0.00000   ) 
                     (   0.00000   0.00000   ) 
                     (   0.00000   0.00000   ) 
                     (   0.00000   0.00000   ) 
                     (   0.00000   0.00000   ) 
                     (   0.00000   0.00000   ) 
                     (   0.00000   0.00000   ) 
                     (   0.00000   0.00000   ) 
                     (   0.00000   0.00000   ) 
                     (   0.00000   0.00000   ) 
                     (   0.00000   0.00000   ) 
                     (   0.00000   0.00000   ) 
                     (   0.00000   0.00000   ) 
                     (   0.00000   0.00000   ) 
                     (   0.00000   0.00000   ) 
                     (   0.00000   0.00000   ) 
                     (   0.00000   0.00000   ) 
                     (   0.00000   0.00000   ) 
                     (   0.00000   0.00000   ) 
                     (   0.00000   0.00000   ) 
                     (   0.00000   0.00000   ) 
                     (   0.00000   0.00000   ) 
                     (   0.00000   0.00000   ) 
                     (   0.00000   0.00000   ) 
                     (   0.00000   0.00000   ) 
                     (   0.00000   0.00000   ) 
                     (   0.00000   0.00000   ) 
                     (   0.00000   0.00000   ) 
                     (   0.00000   0.00000   ) 
                     (   0.00000   0.00000   ) 
                     (   0.00000   0.00000   ) 
                     (   0.00000   0.00000   ) 
                     (   0.00000   0.00000   ) 
                     (   0.00000   0.00000   ) 
                     (   0.00000   0.00000   ) 
                     (   0.00000   0.00000   ) 
                     (   0.00000   0.00000   ) 
                     (   0.00000   0.00000   ) 
                     (   0.00000   0.00000   ) 
                     (   0.00000   0.00000   ) 
                     (   0.00000   0.00000   ) 
                     (   0.00000   0.00000   ) 
                     (   0.00000   0.00000   ) 
                     (   0.00000   0.00000   ) 
                     (   0.00000   0.00000   ) 
                     (   0.00000   0.00000   ) 
                     (   0.00000   0.00000   ) 
                     (   0.00000   0.00000   ) 
                     (   0.00000   0.00000   ) 
                     (   0.00000   0.00000   ) 
                     (   0.00000   0.00000   ) 
                     (   0.00000   0.00000   ) 
                     (   0.00000   0.00000   ) 
                     (   0.00000   0.00000   ) 
                     (   0.00000   0.00000   ) 
                     (   0.00000   0.00000   ) 
                     (   0.00000   0.00000   ) 
                     (   0.00000   0.00000   ) 
                     (   0.00000   0.00000   ) 
                     (   0.00000   0.00000   ) 
                     (   0.00000   0.00000   ) 
                     (   0.00000   0.00000   ) 
                     (   0.00000   0.00000   ) 
                     (   0.00000   0.00000   ) 
                     (   0.00000   0.00000   ) 
                     (   0.00000   0.00000   ) 
                     (   0.00000   0.00000   ) 
                     (   0.00000   0.00000   ) 
                     (   0.00000   0.00000   ) 
                     (   0.00000   0.00000   ) 
                     (   0.00000   0.00000   ) 
                     (   0.00000   0.00000   ) 
[...]
     lambda(  130)=  0.0000   gamma=    6.35 GHz
     lambda(  131)=  0.0000   gamma=    6.94 GHz
     lambda(  132)=  0.0001   gamma=    8.44 GHz
     lambda(  133)=  0.0002   gamma=   23.90 GHz
     lambda(  134)=  0.0002   gamma=   27.46 GHz
     lambda(  135)=  0.0004   gamma=   55.95 GHz
     lambda(  136)=  0.0005   gamma=   68.04 GHz
     lambda(  137)=  0.0007   gamma=  111.21 GHz
     lambda(  138)=  0.0008   gamma=  119.13 GHz
     lambda(  139)=  0.0000   gamma=    2.98 GHz
     lambda(  140)=  0.0000   gamma=    2.99 GHz
     lambda(  141)=  0.0000   gamma=    2.23 GHz
     lambda(  142)=  0.0000   gamma=    2.66 GHz
     lambda(  143)=  0.0000   gamma=    1.84 GHz
     lambda(  144)=  0.0000   gamma=    2.36 GHz
     lambda(  145)=  0.0000   gamma=    2.12 GHz
     lambda(  146)=  0.0000   gamma=    2.28 GHz
     lambda(  147)=  0.0000   gamma=    1.84 GHz
     lambda(  148)=  0.0000   gamma=    2.55 GHz
     lambda(  149)=  0.0000   gamma=    6.47 GHz
     lambda(  150)=  0.0000   gamma=    4.67 GHz
 
     Gaussian Broadening:   0.180 Ry, ngauss=   0
     DOS = 18.211517 states/spin/Ry/Unit Cell at Ef=  3.005707 eV
     double delta at Ef =**********
     lambda(    1)= -0.0555   gamma=    1.55 GHz
     lambda(    2)= -0.0717   gamma=    1.85 GHz
     lambda(    3)= -0.2260   gamma=    2.57 GHz
     lambda(    4)=  0.0000   gamma=    0.71 GHz
     lambda(    5)=  0.6321   gamma=    4.77 GHz
     lambda(    6)=  0.2614   gamma=    2.08 GHz
     lambda(    7)=  0.1065   gamma=    1.69 GHz
     lambda(    8)=  0.0523   gamma=    0.84 GHz
     lambda(    9)=  0.0792   gamma=    1.37 GHz
     lambda(   10)=  0.0653   gamma=    1.17 GHz
     lambda(   11)=  0.0768   gamma=    2.00 GHz
     lambda(   12)=  0.0439   gamma=    1.30 GHz
     lambda(   13)=  0.0314   gamma=    0.95 GHz
     lambda(   14)=  0.0428   gamma=    1.33 GHz
     lambda(   15)=  0.0324   gamma=    1.15 GHz
     lambda(   16)=  0.0353   gamma=    1.39 GHz
     lambda(   17)=  0.0531   gamma=    2.25 GHz
     lambda(   18)=  0.0152   gamma=    0.65 GHz
     lambda(   19)=  0.0249   gamma=    1.19 GHz
     lambda(   20)=  0.0384   gamma=    1.95 GHz
     lambda(   21)=  0.0362   gamma=    2.08 GHz
     lambda(   22)=  0.0407   gamma=    2.34 GHz
     lambda(   23)=  0.0245   gamma=    1.45 GHz
     lambda(   24)=  0.0808   gamma=    5.41 GHz
     lambda(   25)=  0.0268   gamma=    4.24 GHz
     lambda(   26)=  0.0359   gamma=    5.79 GHz
     lambda(   27)=  0.0753   gamma=   12.40 GHz
     lambda(   28)=  0.0765   gamma=   12.84 GHz
     lambda(   29)=  0.0098   gamma=    1.65 GHz
     lambda(   30)=  0.0062   gamma=    1.07 GHz
     lambda(   31)=  0.0067   gamma=    1.19 GHz
     lambda(   32)=  0.0387   gamma=    7.11 GHz
     lambda(   33)=  0.0037   gamma=    0.73 GHz
     lambda(   34)=  0.0037   gamma=    0.74 GHz
     lambda(   35)=  0.0064   gamma=    1.35 GHz
     lambda(   36)=  0.0020   gamma=    0.42 GHz
     lambda(   37)=  0.0288   gamma=    6.34 GHz
     lambda(   38)=  0.0279   gamma=    6.38 GHz
     lambda(   39)=  0.0258   gamma=    6.82 GHz
     lambda(   40)=  0.0026   gamma=    0.78 GHz
     lambda(   41)=  0.0023   gamma=    0.68 GHz
     lambda(   42)=  0.0097   gamma=    3.23 GHz
     lambda(   43)=  0.0013   gamma=    0.49 GHz
     lambda(   44)=  0.0013   gamma=    0.55 GHz
     lambda(   45)=  0.0013   gamma=    0.66 GHz
     lambda(   46)=  0.0015   gamma=    0.78 GHz
     lambda(   47)=  0.0014   gamma=    0.99 GHz
     lambda(   48)=  0.0013   gamma=    0.91 GHz
     lambda(   49)=  0.0017   gamma=    1.31 GHz
     lambda(   50)=  0.0014   gamma=    1.08 GHz
     lambda(   51)=  0.0005   gamma=    0.62 GHz
     lambda(   52)=  0.0004   gamma=    0.49 GHz
     lambda(   53)=  0.0003   gamma=    0.42 GHz
     lambda(   54)=  0.0003   gamma=    0.43 GHz
     lambda(   55)=  0.0005   gamma=    0.73 GHz
     lambda(   56)=  0.0006   gamma=    0.94 GHz
     lambda(   57)=  0.0005   gamma=    1.20 GHz
     lambda(   58)=  0.0003   gamma=    0.71 GHz
     lambda(   59)=  0.0004   gamma=    1.32 GHz
     lambda(   60)=  0.0006   gamma=    2.11 GHz
     lambda(   61)=  0.0001   gamma=    1.02 GHz
     lambda(   62)=  0.0001   gamma=    1.16 GHz
     lambda(   63)=  0.0002   gamma=    2.16 GHz
     lambda(   64)=  0.0002   gamma=    2.56 GHz
     lambda(   65)=  0.0002   gamma=    2.60 GHz
     lambda(   66)=  0.0002   gamma=    2.32 GHz
     lambda(   67)=  0.0001   gamma=    0.72 GHz
     lambda(   68)=  0.0002   gamma=    2.32 GHz
     lambda(   69)=  0.0001   gamma=    1.53 GHz
     lambda(   70)=  0.0001   gamma=    1.57 GHz
     lambda(   71)=  0.0000   gamma=    0.47 GHz
     lambda(   72)=  0.0000   gamma=    0.78 GHz
     lambda(   73)=  0.0001   gamma=    0.88 GHz
     lambda(   74)=  0.0001   gamma=    1.27 GHz
     lambda(   75)=  0.0001   gamma=    0.93 GHz
     lambda(   76)=  0.0001   gamma=    2.14 GHz
     lambda(   77)=  0.0000   gamma=    0.37 GHz
     lambda(   78)=  0.0002   gamma=    3.30 GHz
     lambda(   79)=  0.0001   gamma=    1.67 GHz
     lambda(   80)=  0.0001   gamma=    1.41 GHz
     lambda(   81)=  0.0001   gamma=    1.89 GHz
     lambda(   82)=  0.0002   gamma=    4.61 GHz
     lambda(   83)=  0.0000   gamma=    1.01 GHz
     lambda(   84)=  0.0001   gamma=    1.15 GHz
     lambda(   85)=  0.0000   gamma=    1.01 GHz
     lambda(   86)=  0.0000   gamma=    0.93 GHz
     lambda(   87)=  0.0000   gamma=    0.99 GHz
     lambda(   88)=  0.0000   gamma=    1.13 GHz
     lambda(   89)=  0.0000   gamma=    0.81 GHz
     lambda(   90)=  0.0000   gamma=    1.00 GHz
     lambda(   91)=  0.0000   gamma=    0.76 GHz
     lambda(   92)=  0.0000   gamma=    0.76 GHz
     lambda(   93)=  0.0001   gamma=    1.72 GHz
     lambda(   94)=  0.0002   gamma=    7.17 GHz
     lambda(   95)=  0.0000   gamma=    1.31 GHz
     lambda(   96)=  0.0001   gamma=    2.28 GHz
     lambda(   97)=  0.0000   gamma=    1.50 GHz
     lambda(   98)=  0.0005   gamma=   15.18 GHz
     lambda(   99)=  0.0006   gamma=   19.33 GHz
     lambda(  100)=  0.0001   gamma=    2.99 GHz
     lambda(  101)=  0.0001   gamma=    2.01 GHz
     lambda(  102)=  0.0001   gamma=    3.32 GHz
     lambda(  103)=  0.0000   gamma=    0.96 GHz
     lambda(  104)=  0.0002   gamma=    7.54 GHz
     lambda(  105)=  0.0001   gamma=    1.62 GHz
     lambda(  106)=  0.0003   gamma=    9.71 GHz
     lambda(  107)=  0.0001   gamma=    4.22 GHz
     lambda(  108)=  0.0001   gamma=    4.62 GHz
     lambda(  109)=  0.0000   gamma=    1.14 GHz
     lambda(  110)=  0.0001   gamma=    3.20 GHz
     lambda(  111)=  0.0001   gamma=    1.76 GHz
     lambda(  112)=  0.0000   gamma=    1.61 GHz
     lambda(  113)=  0.0000   gamma=    1.15 GHz
     lambda(  114)=  0.0001   gamma=    1.91 GHz
     lambda(  115)=  0.0001   gamma=    3.39 GHz
     lambda(  116)=  0.0001   gamma=    3.53 GHz
     lambda(  117)=  0.0001   gamma=    1.85 GHz
     lambda(  118)=  0.0000   gamma=    1.46 GHz
     lambda(  119)=  0.0003   gamma=   10.75 GHz
     lambda(  120)=  0.0004   gamma=   14.09 GHz
     lambda(  121)=  0.0009   gamma=   33.34 GHz
     lambda(  122)=  0.0011   gamma=   42.89 GHz
     lambda(  123)=  0.0000   gamma=    5.61 GHz
     lambda(  124)=  0.0000   gamma=    6.11 GHz
     lambda(  125)=  0.0001   gamma=   11.08 GHz
     lambda(  126)=  0.0001   gamma=    7.75 GHz
     lambda(  127)=  0.0001   gamma=    7.27 GHz
     lambda(  128)=  0.0001   gamma=    7.27 GHz
     lambda(  129)=  0.0001   gamma=    7.84 GHz
     lambda(  130)=  0.0001   gamma=    7.80 GHz
     lambda(  131)=  0.0001   gamma=    7.60 GHz
     lambda(  132)=  0.0001   gamma=    9.01 GHz
     lambda(  133)=  0.0002   gamma=   21.82 GHz
     lambda(  134)=  0.0002   gamma=   24.61 GHz
     lambda(  135)=  0.0004   gamma=   50.52 GHz
     lambda(  136)=  0.0004   gamma=   60.13 GHz
     lambda(  137)=  0.0007   gamma=   95.90 GHz
     lambda(  138)=  0.0007   gamma=  103.26 GHz
     lambda(  139)=  0.0000   gamma=    4.29 GHz
     lambda(  140)=  0.0000   gamma=    4.33 GHz
     lambda(  141)=  0.0000   gamma=    2.96 GHz
     lambda(  142)=  0.0000   gamma=    3.61 GHz
     lambda(  143)=  0.0000   gamma=    2.64 GHz
     lambda(  144)=  0.0000   gamma=    3.20 GHz
     lambda(  145)=  0.0000   gamma=    2.95 GHz
     lambda(  146)=  0.0000   gamma=    3.17 GHz
     lambda(  147)=  0.0000   gamma=    2.88 GHz
     lambda(  148)=  0.0000   gamma=    3.50 GHz
     lambda(  149)=  0.0000   gamma=    6.71 GHz
     lambda(  150)=  0.0000   gamma=    5.37 GHz
 
     Gaussian Broadening:   0.200 Ry, ngauss=   0
     DOS = 19.540985 states/spin/Ry/Unit Cell at Ef=  3.191930 eV
     double delta at Ef =**********
     lambda(    1)= -0.0700   gamma=    2.10 GHz
     lambda(    2)= -0.0901   gamma=    2.50 GHz
     lambda(    3)= -0.2726   gamma=    3.33 GHz
     lambda(    4)=  0.0000   gamma=    1.13 GHz
     lambda(    5)=  0.7365   gamma=    5.96 GHz
     lambda(    6)=  0.3152   gamma=    2.69 GHz
     lambda(    7)=  0.1218   gamma=    2.07 GHz
     lambda(    8)=  0.0550   gamma=    0.95 GHz
     lambda(    9)=  0.1025   gamma=    1.90 GHz
     lambda(   10)=  0.0905   gamma=    1.74 GHz
     lambda(   11)=  0.0874   gamma=    2.45 GHz
     lambda(   12)=  0.0704   gamma=    2.24 GHz
     lambda(   13)=  0.0428   gamma=    1.39 GHz
     lambda(   14)=  0.0588   gamma=    1.97 GHz
     lambda(   15)=  0.0497   gamma=    1.90 GHz
     lambda(   16)=  0.0493   gamma=    2.08 GHz
     lambda(   17)=  0.0618   gamma=    2.80 GHz
     lambda(   18)=  0.0207   gamma=    0.95 GHz
     lambda(   19)=  0.0294   gamma=    1.51 GHz
     lambda(   20)=  0.0531   gamma=    2.89 GHz
     lambda(   21)=  0.0417   gamma=    2.56 GHz
     lambda(   22)=  0.0490   gamma=    3.03 GHz
     lambda(   23)=  0.0305   gamma=    1.94 GHz
     lambda(   24)=  0.0856   gamma=    6.15 GHz
     lambda(   25)=  0.0308   gamma=    5.23 GHz
     lambda(   26)=  0.0383   gamma=    6.62 GHz
     lambda(   27)=  0.0788   gamma=   13.92 GHz
     lambda(   28)=  0.0797   gamma=   14.34 GHz
     lambda(   29)=  0.0125   gamma=    2.26 GHz
     lambda(   30)=  0.0106   gamma=    1.96 GHz
     lambda(   31)=  0.0076   gamma=    1.44 GHz
     lambda(   32)=  0.0388   gamma=    7.65 GHz
     lambda(   33)=  0.0067   gamma=    1.39 GHz
     lambda(   34)=  0.0065   gamma=    1.39 GHz
     lambda(   35)=  0.0103   gamma=    2.32 GHz
     lambda(   36)=  0.0029   gamma=    0.67 GHz
     lambda(   37)=  0.0290   gamma=    6.85 GHz
     lambda(   38)=  0.0313   gamma=    7.69 GHz
     lambda(   39)=  0.0283   gamma=    8.02 GHz
     lambda(   40)=  0.0046   gamma=    1.45 GHz
     lambda(   41)=  0.0034   gamma=    1.09 GHz
     lambda(   42)=  0.0104   gamma=    3.71 GHz
     lambda(   43)=  0.0023   gamma=    0.93 GHz
     lambda(   44)=  0.0021   gamma=    0.93 GHz
     lambda(   45)=  0.0024   gamma=    1.28 GHz
     lambda(   46)=  0.0025   gamma=    1.37 GHz
     lambda(   47)=  0.0020   gamma=    1.49 GHz
     lambda(   48)=  0.0018   gamma=    1.40 GHz
     lambda(   49)=  0.0024   gamma=    1.95 GHz
     lambda(   50)=  0.0019   gamma=    1.55 GHz
     lambda(   51)=  0.0008   gamma=    1.00 GHz
     lambda(   52)=  0.0006   gamma=    0.76 GHz
     lambda(   53)=  0.0005   gamma=    0.70 GHz
     lambda(   54)=  0.0005   gamma=    0.71 GHz
     lambda(   55)=  0.0008   gamma=    1.28 GHz
     lambda(   56)=  0.0009   gamma=    1.50 GHz
     lambda(   57)=  0.0006   gamma=    1.40 GHz
     lambda(   58)=  0.0004   gamma=    0.96 GHz
     lambda(   59)=  0.0006   gamma=    2.18 GHz
     lambda(   60)=  0.0008   gamma=    2.90 GHz
     lambda(   61)=  0.0001   gamma=    1.30 GHz
     lambda(   62)=  0.0001   gamma=    1.43 GHz
     lambda(   63)=  0.0002   gamma=    2.77 GHz
     lambda(   64)=  0.0003   gamma=    3.09 GHz
     lambda(   65)=  0.0003   gamma=    3.80 GHz
     lambda(   66)=  0.0003   gamma=    3.52 GHz
     lambda(   67)=  0.0001   gamma=    1.05 GHz
     lambda(   68)=  0.0002   gamma=    2.52 GHz
     lambda(   69)=  0.0002   gamma=    2.35 GHz
     lambda(   70)=  0.0002   gamma=    2.40 GHz
     lambda(   71)=  0.0000   gamma=    0.71 GHz
     lambda(   72)=  0.0001   gamma=    1.45 GHz
     lambda(   73)=  0.0001   gamma=    1.48 GHz
     lambda(   74)=  0.0001   gamma=    1.85 GHz
     lambda(   75)=  0.0001   gamma=    1.47 GHz
     lambda(   76)=  0.0002   gamma=    2.92 GHz
     lambda(   77)=  0.0000   gamma=    0.73 GHz
     lambda(   78)=  0.0002   gamma=    3.37 GHz
     lambda(   79)=  0.0002   gamma=    3.06 GHz
     lambda(   80)=  0.0001   gamma=    2.82 GHz
     lambda(   81)=  0.0001   gamma=    2.56 GHz
     lambda(   82)=  0.0002   gamma=    5.07 GHz
     lambda(   83)=  0.0001   gamma=    1.56 GHz
     lambda(   84)=  0.0001   gamma=    1.56 GHz
     lambda(   85)=  0.0001   gamma=    1.31 GHz
     lambda(   86)=  0.0001   gamma=    1.27 GHz
     lambda(   87)=  0.0001   gamma=    1.80 GHz
     lambda(   88)=  0.0001   gamma=    1.93 GHz
     lambda(   89)=  0.0000   gamma=    1.17 GHz
     lambda(   90)=  0.0000   gamma=    1.37 GHz
     lambda(   91)=  0.0000   gamma=    1.33 GHz
     lambda(   92)=  0.0000   gamma=    1.33 GHz
     lambda(   93)=  0.0001   gamma=    2.16 GHz
     lambda(   94)=  0.0002   gamma=    7.23 GHz
     lambda(   95)=  0.0000   gamma=    1.42 GHz
     lambda(   96)=  0.0001   gamma=    2.42 GHz
     lambda(   97)=  0.0001   gamma=    1.87 GHz
     lambda(   98)=  0.0004   gamma=   14.39 GHz
     lambda(   99)=  0.0005   gamma=   17.98 GHz
     lambda(  100)=  0.0001   gamma=    3.53 GHz
     lambda(  101)=  0.0001   gamma=    2.40 GHz
     lambda(  102)=  0.0001   gamma=    3.73 GHz
     lambda(  103)=  0.0000   gamma=    1.68 GHz
     lambda(  104)=  0.0002   gamma=    7.63 GHz
     lambda(  105)=  0.0001   gamma=    2.17 GHz
     lambda(  106)=  0.0003   gamma=    9.31 GHz
     lambda(  107)=  0.0001   gamma=    4.89 GHz
     lambda(  108)=  0.0002   gamma=    5.44 GHz
     lambda(  109)=  0.0000   gamma=    1.57 GHz
     lambda(  110)=  0.0001   gamma=    3.47 GHz
     lambda(  111)=  0.0001   gamma=    2.31 GHz
     lambda(  112)=  0.0001   gamma=    2.20 GHz
     lambda(  113)=  0.0001   gamma=    1.78 GHz
     lambda(  114)=  0.0001   gamma=    2.59 GHz
     lambda(  115)=  0.0001   gamma=    3.79 GHz
     lambda(  116)=  0.0001   gamma=    4.08 GHz
     lambda(  117)=  0.0001   gamma=    2.44 GHz
     lambda(  118)=  0.0001   gamma=    2.18 GHz
     lambda(  119)=  0.0003   gamma=   11.22 GHz
     lambda(  120)=  0.0004   gamma=   14.30 GHz
     lambda(  121)=  0.0008   gamma=   32.22 GHz
     lambda(  122)=  0.0010   gamma=   40.54 GHz
     lambda(  123)=  0.0000   gamma=    7.29 GHz
     lambda(  124)=  0.0001   gamma=    7.77 GHz
     lambda(  125)=  0.0001   gamma=   12.34 GHz
     lambda(  126)=  0.0001   gamma=    9.27 GHz
     lambda(  127)=  0.0001   gamma=   10.34 GHz
     lambda(  128)=  0.0001   gamma=   10.49 GHz
     lambda(  129)=  0.0001   gamma=   10.94 GHz
     lambda(  130)=  0.0001   gamma=   11.00 GHz
     lambda(  131)=  0.0001   gamma=    9.77 GHz
     lambda(  132)=  0.0001   gamma=   11.40 GHz
     lambda(  133)=  0.0002   gamma=   22.50 GHz
     lambda(  134)=  0.0002   gamma=   24.84 GHz
     lambda(  135)=  0.0003   gamma=   49.92 GHz
     lambda(  136)=  0.0004   gamma=   58.49 GHz
     lambda(  137)=  0.0006   gamma=   91.20 GHz
     lambda(  138)=  0.0006   gamma=   98.56 GHz
     lambda(  139)=  0.0000   gamma=    6.98 GHz
     lambda(  140)=  0.0000   gamma=    7.08 GHz
     lambda(  141)=  0.0000   gamma=    4.65 GHz
     lambda(  142)=  0.0000   gamma=    5.66 GHz
     lambda(  143)=  0.0000   gamma=    4.35 GHz
     lambda(  144)=  0.0000   gamma=    5.01 GHz
     lambda(  145)=  0.0000   gamma=    4.69 GHz
     lambda(  146)=  0.0000   gamma=    4.95 GHz
     lambda(  147)=  0.0000   gamma=    4.96 GHz
     lambda(  148)=  0.0000   gamma=    5.56 GHz
     lambda(  149)=  0.0001   gamma=    8.39 GHz
     lambda(  150)=  0.0000   gamma=    7.32 GHz
 
     PHONON       :   1d 4h50m CPU   1d 5h28m WALL

     INITIALIZATION: 
     phq_setup    :      0.05s CPU      0.16s WALL (       1 calls)
     phq_init     :     10.04s CPU     10.34s WALL (       1 calls)
 
     phq_init     :     10.04s CPU     10.34s WALL (       1 calls)
     set_drhoc    :      0.20s CPU      0.20s WALL (       3 calls)
     init_vloc    :      0.08s CPU      0.08s WALL (       1 calls)
     init_us_1    :      0.01s CPU      0.01s WALL (       1 calls)
     init_us_2    :    233.90s CPU    255.95s WALL (  101034 calls)
 
     DYNAMICAL MATRIX:
     dynmat0      :      8.27s CPU      8.48s WALL (       1 calls)
     phqscf       : 103696.86s CPU 105993.51s WALL (       1 calls)
     dynmatrix    :      0.58s CPU      0.63s WALL (       1 calls)
 
     phqscf       : 103696.86s CPU 105993.51s WALL (       1 calls)
     solve_linter : 103400.21s CPU 105663.18s WALL (     150 calls)
     drhodv       :    281.64s CPU    300.80s WALL (     150 calls)
 
     dynmat0      :      8.27s CPU      8.48s WALL (       1 calls)
     dynmat_us    :      6.55s CPU      6.71s WALL (       1 calls)
     d2ionq       :      1.11s CPU      1.11s WALL (       1 calls)
     dynmatcc     :      0.58s CPU      0.59s WALL (       1 calls)
 
     dynmat_us    :      6.55s CPU      6.71s WALL (       1 calls)
 
     phqscf       : 103696.86s CPU 105993.51s WALL (       1 calls)
     solve_linter : 103400.21s CPU 105663.18s WALL (     150 calls)
 
     solve_linter : 103400.21s CPU 105663.18s WALL (     150 calls)
     dvqpsi_us    :    631.50s CPU    644.91s WALL (    8100 calls)
     sth_kernel   : 100142.26s CPU 101876.81s WALL (    1269 calls)
     apply_dpot_b :   3576.52s CPU   3656.05s WALL (   68526 calls)
     ortho        :    270.19s CPU    274.98s WALL (   68526 calls)
     cgsolve      :  82035.19s CPU  83421.63s WALL (   68526 calls)
     incdrhoscf   :   5012.62s CPU   5096.69s WALL (   68526 calls)
     vpsifft      :    483.16s CPU    494.29s WALL (    8100 calls)
     dv_of_drho   :     20.86s CPU     23.55s WALL (    1269 calls)
     mix_pot      :     51.21s CPU    122.98s WALL (    1269 calls)
     ef_shift     :      3.92s CPU      4.63s WALL (    1269 calls)
     ef_shift_wfc :      0.12s CPU      8.57s WALL (     150 calls)
     localdos     :    690.73s CPU    810.70s WALL (     150 calls)
     psymdvscf    :    645.20s CPU    655.46s WALL (    1269 calls)
 
     dvqpsi_us    :    631.50s CPU    644.91s WALL (    8100 calls)
     dvqpsi_us_on :    140.76s CPU    143.28s WALL (    8100 calls)
 
     cgsolve      :  82035.19s CPU  83421.63s WALL (   68526 calls)
     ch_psi       :  78798.13s CPU  80135.30s WALL ( 1545957 calls)
 
     ch_psi       :  78798.13s CPU  80135.30s WALL ( 1545957 calls)
     h_psi        :  65824.05s CPU  66854.06s WALL ( 1545957 calls)
     last         :  11850.95s CPU  12147.98s WALL ( 1545957 calls)
 
     h_psi        :  65824.05s CPU  66854.06s WALL ( 1545957 calls)
     add_vuspsi   :   5716.86s CPU   5756.97s WALL ( 1545957 calls)
 
     incdrhoscf   :   5012.62s CPU   5096.69s WALL (   68526 calls)
 
 
      Electron-phonon coupling
     elphel       :    898.38s CPU   1092.81s WALL (     150 calls)
 
      General routines
     calbec       :  12732.74s CPU  13162.24s WALL ( 3132954 calls)
     fft          :     64.67s CPU     71.35s WALL (   41639 calls)
     ffts         :    472.12s CPU    583.59s WALL (  694800 calls)
     fftw         :  55874.56s CPU  56704.36s WALL (******** calls)
     davcio       :     67.62s CPU    243.42s WALL (  349344 calls)
     write_rec    :     20.03s CPU    122.74s WALL (    1419 calls)
 
 
     PHONON       :   1d 4h50m CPU   1d 5h28m WALL

 
   This run was terminated on:  22: 3:23  31Aug2023            

=------------------------------------------------------------------------------=
   JOB DONE.
=------------------------------------------------------------------------------=
